/*--------------------------------*- C++ -*----------------------------------*\
| =========                 |                                                 |
| \\      /  F ield         | OpenFOAM: The Open Source CFD Toolbox           |
|  \\    /   O peration     | Version:  2412                                  |
|   \\  /    A nd           | Website:  www.openfoam.com                      |
|    \\/     M anipulation  |                                                 |
\*---------------------------------------------------------------------------*/
FoamFile
{
    version     2.0;
    format      ascii;
    arch        "LSB;label=32;scalar=64";
    class       surfaceScalarField;
    location    "1000";
    object      phi;
}
// * * * * * * * * * * * * * * * * * * * * * * * * * * * * * * * * * * * * * //

dimensions      [0 3 -1 0 0 0 0];

oriented        oriented;

internalField   nonuniform List<scalar> 
12640
(
0.00549936
4.53612e-06
-0.00549916
0.00549929
7.7817e-08
0.00549926
3.03241e-08
0.00549926
6.86749e-09
0.00549926
3.78923e-09
0.00549926
1.61813e-09
0.00549926
1.31704e-09
0.00549926
5.90866e-10
0.00549926
6.08473e-10
0.00549926
-6.69728e-11
0.00549926
1.83157e-10
0.00549926
-2.13009e-10
0.00549926
-8.12868e-11
0.00549926
-5.07612e-12
0.00549927
-2.61228e-10
0.00549927
6.54777e-11
0.00549927
-8.62401e-12
0.00549927
1.61087e-10
0.00549927
-8.35066e-11
0.00549927
3.20787e-10
0.00549927
1.0321e-10
0.00549927
4.86424e-10
0.00549927
2.71224e-10
0.00549927
3.88678e-10
0.00549927
3.44163e-10
0.00549927
6.26614e-10
0.00549927
3.8184e-10
0.00549927
5.45235e-10
0.00549927
6.04604e-10
0.00549927
5.69649e-10
0.00549927
7.30281e-10
0.00549927
7.09237e-10
0.00549927
7.1188e-10
0.00549927
8.58427e-10
0.00549927
8.45553e-10
0.00549927
9.70816e-10
0.00549927
1.16606e-09
0.00549927
1.29061e-09
0.00549927
1.19991e-09
1.40993e-09
0.00549927
0.0187167
4.29849e-06
-0.0187165
0.0187167
1.65079e-07
0.0187166
9.07723e-08
0.0187166
1.72702e-08
0.0187166
1.76591e-08
0.0187166
1.00703e-08
0.0187166
9.82954e-09
0.0187166
7.43271e-09
0.0187166
6.7539e-09
0.0187166
5.71712e-09
0.0187166
5.47204e-09
0.0187166
4.8197e-09
0.0187166
4.42152e-09
0.0187166
4.70689e-09
0.0187166
4.40974e-09
0.0187167
4.88012e-09
0.0187167
4.72696e-09
0.0187167
4.93154e-09
0.0187167
5.04242e-09
0.0187167
5.58743e-09
0.0187167
5.27423e-09
0.0187167
5.77998e-09
0.0187167
5.95824e-09
0.0187167
6.08287e-09
0.0187167
6.04138e-09
0.0187167
6.47262e-09
0.0187167
6.32989e-09
0.0187167
6.89848e-09
0.0187167
6.70542e-09
0.0187167
7.00302e-09
0.0187167
7.23215e-09
0.0187167
7.97912e-09
0.0187167
8.08717e-09
0.0187167
8.34941e-09
0.0187167
8.83173e-09
0.0187167
8.45947e-09
0.0187167
9.97315e-09
0.0187167
1.30738e-08
0.0187167
1.15444e-08
8.87578e-09
0.0187167
0.0369574
4.06215e-06
-0.0369572
0.0369573
2.74728e-07
0.0369572
1.66125e-07
0.0369573
8.65383e-09
0.0369573
1.75623e-08
0.0369573
2.44254e-09
0.0369573
4.54044e-09
0.0369573
5.92848e-10
0.0369573
8.35884e-10
0.0369573
-7.58406e-10
0.0369573
-5.64066e-10
0.0369573
-1.26076e-09
0.0369573
-8.90758e-10
0.0369573
-3.74732e-10
0.0369573
-3.63981e-10
0.0369573
2.20109e-10
0.0369573
4.31251e-10
0.0369573
1.35916e-09
0.0369573
1.17931e-09
0.0369573
2.24473e-09
0.0369573
2.09541e-09
0.0369573
3.06487e-09
0.0369573
2.916e-09
0.0369573
3.61443e-09
0.0369573
3.84109e-09
0.0369574
4.19032e-09
0.0369574
4.13792e-09
0.0369574
4.82288e-09
0.0369574
5.02033e-09
0.0369574
5.35495e-09
0.0369574
5.54388e-09
0.0369574
6.17507e-09
0.0369574
6.67351e-09
0.0369574
6.81995e-09
0.0369574
8.0615e-09
0.0369574
6.53776e-09
0.0369574
9.58074e-09
0.0369574
1.27009e-08
0.0369574
7.25378e-09
1.37991e-08
0.0369574
0.0617346
3.77791e-06
-0.0617343
0.0617344
4.04883e-07
0.0617343
2.77004e-07
0.0617343
2.36107e-08
0.0617343
3.07429e-08
0.0617344
4.64757e-09
0.0617344
1.2029e-08
0.0617344
5.12032e-09
0.0617344
5.20885e-09
0.0617344
2.69818e-09
0.0617344
3.6913e-09
0.0617344
2.39305e-09
0.0617344
2.67795e-09
0.0617344
3.5189e-09
0.0617344
3.54515e-09
0.0617345
5.09187e-09
0.0617345
5.32334e-09
0.0617345
6.54757e-09
0.0617345
6.66364e-09
0.0617345
8.53851e-09
0.0617345
7.98004e-09
0.0617345
9.73801e-09
0.0617345
9.84687e-09
0.0617345
1.07677e-08
0.0617345
1.09644e-08
0.0617345
1.22165e-08
0.0617345
1.21511e-08
0.0617345
1.3254e-08
0.0617345
1.34938e-08
0.0617345
1.36642e-08
0.0617345
1.51166e-08
0.0617345
1.58846e-08
0.0617345
1.70651e-08
0.0617345
1.66167e-08
0.0617345
2.29233e-08
0.0617345
1.91704e-08
0.0617345
1.91346e-08
0.0617345
2.17022e-08
0.0617345
2.43254e-08
2.63549e-08
0.0617345
0.0949755
3.47741e-06
-0.0949752
0.0949754
5.45434e-07
0.0949753
3.89672e-07
0.0949753
2.71297e-08
0.0949753
2.42464e-08
0.0949753
-5.89735e-11
0.0949753
-7.30482e-09
0.0949754
-8.50261e-09
0.0949754
-9.58999e-09
0.0949754
-1.16838e-08
0.0949754
-1.1331e-08
0.0949754
-1.08355e-08
0.0949754
-9.49857e-09
0.0949754
-8.65414e-09
0.0949754
-7.63179e-09
0.0949754
-4.79034e-09
0.0949755
-4.53378e-09
0.0949755
-3.60785e-09
0.0949755
-6.86112e-10
0.0949755
3.07618e-10
0.0949755
5.34668e-10
0.0949755
1.33955e-09
0.0949755
4.12841e-09
0.0949755
4.48744e-09
0.0949755
4.45578e-09
0.0949755
6.64224e-09
0.0949755
7.13842e-09
0.0949755
7.84242e-09
0.0949755
8.60317e-09
0.0949755
1.02301e-08
0.0949755
1.05279e-08
0.0949755
1.17993e-08
0.0949755
1.16517e-08
0.0949755
1.86056e-08
0.0949755
1.06012e-08
0.0949755
1.97978e-08
0.0949755
2.18074e-08
0.0949755
1.42734e-08
0.0949756
2.21377e-08
1.79501e-08
0.0949756
0.139129
3.16561e-06
-0.139129
0.139129
7.0141e-07
0.139129
5.17757e-07
0.139129
9.08953e-08
0.139129
5.09612e-08
0.139129
-5.42186e-09
0.139129
1.23147e-08
0.139129
-6.01083e-09
0.139129
-1.26418e-08
0.139129
-1.2062e-08
0.139129
-8.9878e-09
0.139129
-1.08073e-08
0.139129
-6.88694e-09
0.139129
-7.06964e-09
0.139129
-3.92842e-09
0.139129
-1.32894e-09
0.139129
-9.13143e-10
0.139129
1.94039e-09
0.139129
3.78822e-09
0.139129
6.93227e-09
0.139129
6.9142e-09
0.139129
9.8507e-09
0.139129
1.14372e-08
0.139129
1.36018e-08
0.139129
1.35201e-08
0.139129
1.53695e-08
0.139129
1.7758e-08
0.139129
1.74433e-08
0.139129
2.08348e-08
0.139129
2.04991e-08
0.139129
2.41229e-08
0.139129
2.9319e-08
0.139129
2.53365e-08
0.139129
1.85036e-08
0.139129
3.99804e-08
0.139129
3.20729e-08
0.139129
2.54054e-08
0.139129
3.20458e-08
0.139129
4.09886e-08
3.7936e-08
0.139129
0.1973
2.85179e-06
-0.1973
0.1973
8.61737e-07
0.1973
6.17556e-07
0.1973
1.39303e-07
0.1973
5.99112e-08
0.1973
-1.18413e-08
0.1973
-8.17496e-09
0.1973
-3.86863e-08
0.1973
-2.53456e-08
0.1973
-3.31228e-08
0.1973
-3.09538e-08
0.1973
-3.12612e-08
0.1973
-2.91429e-08
0.1973
-2.42398e-08
0.1973
-2.30357e-08
0.1973
-2.00779e-08
0.1973
-1.61155e-08
0.1973
-1.27948e-08
0.1973
-9.95047e-09
0.1973
-6.9994e-09
0.1973
-5.11423e-09
0.1973
-2.46705e-09
0.1973
-7.26431e-11
0.1973
2.21307e-09
0.1973
5.32366e-09
0.1973
7.03677e-09
0.1973
7.00807e-09
0.1973
1.11524e-08
0.1973
1.23987e-08
0.1973
1.30405e-08
0.1973
1.591e-08
0.1973
1.30384e-08
0.1973
3.09086e-08
0.1973
1.49574e-08
0.1973
3.1076e-08
0.1973
2.6471e-08
0.1973
2.49487e-08
0.1973
3.20909e-08
0.1973
2.64888e-08
3.74764e-08
0.1973
0.273411
2.5672e-06
-0.273411
0.273411
1.0359e-06
0.273411
7.20342e-07
0.273411
2.46083e-07
0.273411
1.00105e-07
0.273411
2.38634e-08
0.273411
-7.60916e-09
0.273411
-2.04683e-08
0.273411
-2.04902e-08
0.273411
-4.18243e-08
0.273411
-3.35467e-08
0.273411
-3.35588e-08
0.273411
-3.00377e-08
0.273411
-2.83519e-08
0.273411
-2.11124e-08
0.273411
-1.91683e-08
0.273411
-1.47283e-08
0.273411
-1.12212e-08
0.273411
-6.92122e-09
0.273411
-1.85015e-09
0.273411
-2.42971e-10
0.273411
4.50124e-09
0.273411
8.15479e-09
0.273411
1.05499e-08
0.273411
1.38237e-08
0.273411
1.45038e-08
0.273411
2.02555e-08
0.273411
2.1348e-08
0.273411
2.42132e-08
0.273411
2.60531e-08
0.273411
3.629e-08
0.273411
2.24892e-08
0.273411
3.11546e-08
0.273411
3.96348e-08
0.273411
3.5503e-08
0.273411
5.0618e-08
0.273411
3.58675e-08
0.273411
6.62052e-08
0.273411
4.43059e-08
5.97062e-08
0.273411
0.372413
2.3052e-06
-0.372412
0.372413
1.1732e-06
0.372412
8.33251e-07
0.372412
3.15815e-07
0.372412
1.55716e-07
0.372412
4.21817e-08
0.372412
-1.70035e-08
0.372412
-5.66647e-08
0.372412
-5.56505e-08
0.372412
-5.99641e-08
0.372412
-5.00322e-08
0.372413
-5.99848e-08
0.372413
-5.69858e-08
0.372413
-5.09915e-08
0.372413
-4.69465e-08
0.372413
-4.16702e-08
0.372413
-3.57964e-08
0.372413
-3.05807e-08
0.372413
-2.73939e-08
0.372413
-2.11394e-08
0.372413
-1.59145e-08
0.372413
-1.00598e-08
0.372413
-7.75668e-09
0.372413
-3.81876e-09
0.372413
4.93484e-10
0.372413
4.32899e-09
0.372413
6.49214e-09
0.372413
1.18575e-08
0.372413
1.42844e-08
0.372413
6.98245e-09
0.372413
2.02253e-08
0.372413
2.64503e-08
0.372413
4.1478e-08
0.372413
3.20981e-08
0.372413
2.04529e-08
0.372413
2.65241e-08
0.372413
5.25639e-08
0.372413
3.6637e-08
0.372413
5.57164e-08
5.06202e-08
0.372413
0.500532
2.09184e-06
-0.500532
0.500532
1.3448e-06
0.500532
9.34354e-07
0.500532
4.58727e-07
0.500532
2.40159e-07
0.500532
6.65003e-08
0.500532
3.41031e-12
0.500532
-1.10707e-08
0.500532
-6.60803e-08
0.500532
-5.21947e-08
0.500532
-7.01978e-08
0.500532
-6.20842e-08
0.500532
-6.28274e-08
0.500532
-5.89451e-08
0.500532
-5.41184e-08
0.500532
-4.57534e-08
0.500532
-3.86643e-08
0.500532
-3.53911e-08
0.500532
-2.75804e-08
0.500532
-2.46251e-08
0.500532
-1.35162e-08
0.500532
-1.10212e-08
0.500532
-4.06035e-09
0.500532
-2.12782e-09
0.500532
3.60883e-09
0.500532
1.06267e-08
0.500532
1.42055e-08
0.500533
1.79955e-08
0.500533
1.86256e-08
0.500533
3.11236e-08
0.500533
2.10406e-08
0.500533
5.02525e-08
0.500533
1.95856e-08
0.500533
5.27395e-08
0.500533
6.10437e-08
0.500533
3.77365e-08
0.500533
5.4368e-08
0.500533
6.39118e-08
0.500533
6.64839e-08
5.89909e-08
0.500533
0.665591
1.87849e-06
-0.665591
0.665591
1.46531e-06
0.665591
1.0446e-06
0.665591
5.67983e-07
0.66559
3.12437e-07
0.66559
1.33408e-07
0.66559
3.14669e-08
0.66559
-4.19339e-08
0.66559
-4.49723e-08
0.66559
-8.28202e-08
0.66559
-8.29556e-08
0.665591
-9.59349e-08
0.665591
-8.94783e-08
0.665591
-8.24621e-08
0.665591
-7.65124e-08
0.665591
-7.25941e-08
0.665591
-6.41151e-08
0.665591
-5.71316e-08
0.665591
-5.14148e-08
0.665591
-4.03632e-08
0.665591
-3.79502e-08
0.665591
-2.73286e-08
0.665591
-2.2406e-08
0.665591
-1.65843e-08
0.665591
-9.17613e-09
0.665591
-6.03295e-09
0.665591
-5.56607e-10
0.665591
7.80976e-09
0.665591
1.78569e-08
0.665591
1.2616e-08
0.665591
2.56538e-08
0.665591
1.08848e-08
0.665591
4.45099e-08
0.665591
3.42275e-08
0.665591
3.66556e-08
0.665591
3.85127e-08
0.665591
5.54852e-08
0.665591
4.71133e-08
0.665591
6.8951e-08
8.04259e-08
0.665591
0.877388
1.74228e-06
-0.877388
0.877388
1.57889e-06
0.877388
1.14519e-06
0.877388
6.92226e-07
0.877388
4.23139e-07
0.877388
2.17743e-07
0.877388
5.23964e-08
0.877388
3.61432e-08
0.877388
-6.90951e-08
0.877388
-5.82949e-08
0.877388
-7.92307e-08
0.877388
-1.01003e-07
0.877388
-1.11368e-07
0.877388
-8.38993e-08
0.877388
-8.68948e-08
0.877388
-8.31907e-08
0.877388
-7.74419e-08
0.877388
-6.99957e-08
0.877388
-5.94174e-08
0.877388
-5.45158e-08
0.877388
-4.32048e-08
0.877388
-3.85209e-08
0.877388
-2.83658e-08
0.877388
-2.14183e-08
0.877388
-1.57659e-08
0.877388
-1.13371e-08
0.877388
-1.28682e-08
0.877388
1.91123e-08
0.877388
1.62308e-08
0.877388
7.90135e-09
0.877388
8.5676e-09
0.877388
5.36641e-08
0.877388
1.91086e-09
0.877388
7.29657e-08
0.877388
4.28917e-08
0.877388
4.56437e-08
0.877388
7.36022e-08
0.877388
7.31026e-08
0.877388
6.98134e-08
6.89595e-08
0.877388
1.14818
1.60748e-06
-1.14818
1.14818
1.60997e-06
1.14818
1.23514e-06
1.14818
8.15303e-07
1.14818
5.23602e-07
1.14818
3.00885e-07
1.14818
1.86786e-07
1.14818
9.93447e-09
1.14818
2.40246e-09
1.14818
-5.54018e-08
1.14818
-7.79652e-08
1.14818
-1.22433e-07
1.14818
-1.03524e-07
1.14818
-9.41905e-08
1.14818
-1.13567e-07
1.14818
-1.02739e-07
1.14818
-9.26965e-08
1.14818
-8.80077e-08
1.14818
-8.06392e-08
1.14818
-7.01829e-08
1.14818
-6.42889e-08
1.14818
-5.37256e-08
1.14818
-4.595e-08
1.14818
-4.07951e-08
1.14818
-2.88956e-08
1.14818
-1.53431e-08
1.14818
-2.97179e-08
1.14818
-1.16875e-08
1.14818
2.0657e-08
1.14818
-2.84296e-09
1.14818
7.46499e-09
1.14818
-2.24916e-09
1.14818
6.44049e-08
1.14818
4.10201e-10
1.14818
5.05672e-08
1.14818
5.53636e-08
1.14818
7.3484e-08
1.14818
8.7029e-08
1.14818
9.3906e-08
7.8049e-08
1.14818
1.49327
1.47647e-06
-1.49327
1.49327
1.57981e-06
1.49327
1.3531e-06
1.49327
9.04929e-07
1.49327
6.60506e-07
1.49327
4.26504e-07
1.49327
2.25526e-07
1.49327
7.89506e-08
1.49327
6.26738e-08
1.49327
-4.17541e-08
1.49327
-6.9316e-08
1.49327
-6.44882e-08
1.49327
-1.3902e-07
1.49327
-1.06404e-07
1.49327
-7.79877e-08
1.49327
-1.23025e-07
1.49327
-1.09299e-07
1.49327
-9.84537e-08
1.49327
-9.38279e-08
1.49327
-8.33544e-08
1.49327
-8.00387e-08
1.49327
-6.87988e-08
1.49327
-6.26687e-08
1.49327
-4.94099e-08
1.49327
-3.13619e-08
1.49327
-7.00294e-08
1.49327
-3.20023e-08
1.49327
1.54836e-08
1.49327
-3.80917e-08
1.49327
-2.21694e-09
1.49327
1.56296e-08
1.49327
-2.31627e-08
1.49327
5.51286e-08
1.49327
4.52102e-08
1.49327
2.97069e-08
1.49327
3.25412e-08
1.49327
9.62353e-08
1.49327
5.05742e-08
1.49327
1.21493e-07
7.10558e-08
1.49327
1.93174
1.31206e-06
-1.93174
1.93174
1.56963e-06
1.93174
1.40422e-06
1.93174
9.95454e-07
1.93174
7.37199e-07
1.93174
5.59734e-07
1.93174
2.98876e-07
1.93174
2.10754e-07
1.93174
1.16189e-07
1.93174
1.30667e-08
1.93174
-1.66008e-08
1.93174
-6.91663e-08
1.93174
-6.87065e-08
1.93174
-1.10592e-07
1.93174
-1.09228e-07
1.93174
-1.06146e-07
1.93174
-8.58067e-08
1.93174
-1.02592e-07
1.93174
-9.69638e-08
1.93174
-9.25671e-08
1.93174
-8.47004e-08
1.93174
-7.86633e-08
1.93174
-6.99738e-08
1.93174
-8.18815e-08
1.93174
-5.37222e-08
1.93174
-3.97237e-08
1.93174
-2.28894e-08
1.93174
-4.26238e-08
1.93174
-1.24836e-08
1.93174
-2.21633e-08
1.93174
7.43669e-09
1.93174
-1.44059e-08
1.93174
4.37924e-09
1.93174
7.16535e-08
1.93174
6.889e-09
1.93174
6.29974e-08
1.93174
9.59582e-08
1.93174
3.9837e-08
1.93174
7.42608e-08
1.04181e-07
1.93174
2.48733
1.17503e-06
-2.48733
2.48733
1.45489e-06
2.48733
1.33305e-06
2.48733
1.04822e-06
2.48733
8.80473e-07
2.48733
6.11421e-07
2.48733
4.49154e-07
2.48733
2.39241e-07
2.48733
1.9089e-07
2.48733
1.1773e-07
2.48733
1.38107e-09
2.48733
2.33615e-08
2.48733
-3.51689e-08
2.48733
-9.50667e-08
2.48733
-7.49511e-08
2.48733
-1.21768e-07
2.48733
-9.16018e-08
2.48733
-7.27083e-08
2.48733
-9.91994e-08
2.48733
-8.41951e-08
2.48733
-9.57073e-08
2.48733
-7.80844e-08
2.48733
-9.9762e-08
2.48733
-7.31114e-08
2.48733
-3.11602e-08
2.48733
-6.21835e-08
2.48733
-2.02822e-08
2.48733
-5.1001e-08
2.48733
-6.98448e-08
2.48733
5.39416e-09
2.48733
-4.04396e-08
2.48733
-1.92493e-08
2.48733
6.10736e-08
2.48733
9.12338e-09
2.48733
3.85293e-08
2.48733
-1.40491e-08
2.48733
7.6147e-08
2.48733
7.70234e-08
2.48733
5.42823e-08
6.50374e-08
2.48733
3.18958
1.02828e-06
-3.18958
3.18958
1.25931e-06
3.18958
1.24799e-06
3.18958
1.09267e-06
3.18958
8.87002e-07
3.18958
7.23812e-07
3.18958
4.9801e-07
3.18958
3.8796e-07
3.18958
2.28849e-07
3.18958
2.1527e-07
3.18958
1.20018e-07
3.18958
4.77669e-08
3.18958
-3.06086e-08
3.18958
-1.76863e-08
3.18958
-6.93117e-09
3.18958
-8.17798e-08
3.18958
-6.0367e-08
3.18958
-4.24534e-08
3.18958
-9.33614e-08
3.18958
-7.58351e-08
3.18958
-7.53288e-08
3.18958
-5.41862e-08
3.18958
-9.88638e-08
3.18958
-6.97763e-08
3.18958
-3.36998e-08
3.18958
-8.75643e-08
3.18958
-5.0024e-08
3.18958
-7.71151e-10
3.18958
-3.27012e-08
3.18958
-4.39489e-08
3.18958
-6.14563e-08
3.18958
2.78308e-08
3.18958
-1.33697e-08
3.18958
3.12633e-08
3.18958
-2.54207e-08
3.18958
-4.50157e-09
3.18958
3.21975e-09
3.18958
5.61704e-08
3.18958
5.94629e-08
1.04439e-08
3.18958
4.07518
8.41499e-07
-4.07518
4.07518
1.10448e-06
4.07518
1.12554e-06
4.07518
1.07557e-06
4.07518
8.27735e-07
4.07518
7.879e-07
4.07518
5.42499e-07
4.07518
4.3006e-07
4.07518
3.86042e-07
4.07518
2.3004e-07
4.07518
1.5933e-07
4.07518
1.40227e-07
4.07518
5.75755e-08
4.07518
3.50422e-08
4.07518
-4.26155e-08
4.07518
1.04914e-08
4.07518
-3.92366e-08
4.07518
-5.17487e-08
4.07518
-2.43043e-09
4.07518
-7.67252e-08
4.07518
-2.89791e-08
4.07518
-9.93583e-08
4.07518
-4.17746e-08
4.07518
-4.22996e-08
4.07518
-7.3562e-08
4.07518
2.09736e-09
4.07518
-4.33638e-08
4.07518
-2.79118e-08
4.07518
-5.85762e-08
4.07518
-1.63033e-08
4.07518
-6.65779e-09
4.07518
-7.63383e-08
4.07518
-2.2738e-09
4.07518
1.02703e-08
4.07518
-9.26857e-08
4.07518
1.20329e-08
4.07518
-6.98825e-08
4.07518
1.85889e-08
4.07518
-2.10904e-10
-4.74057e-09
4.07518
5.18973
7.14194e-07
-5.18973
5.18973
9.16806e-07
5.18973
1.09152e-06
5.18973
8.59383e-07
5.18973
8.1836e-07
5.18973
7.37232e-07
5.18973
5.04038e-07
5.18973
4.95533e-07
5.18973
3.6005e-07
5.18973
2.98049e-07
5.18973
1.60834e-07
5.18973
1.41375e-07
5.18973
1.09166e-07
5.18973
6.06456e-08
5.18973
6.20701e-08
5.18973
7.31124e-10
5.18973
1.04095e-08
5.18973
-1.08379e-08
5.18973
-7.12532e-09
5.18973
-9.42595e-08
5.18973
2.25434e-08
5.18973
-5.97272e-08
5.18973
-4.84884e-08
5.18973
-5.55799e-08
5.18973
-2.89163e-08
5.18973
-6.35674e-08
5.18973
-3.38713e-08
5.18973
-3.96913e-08
5.18973
-2.60995e-08
5.18973
1.71076e-08
5.18973
-5.50527e-08
5.18973
-2.84279e-08
5.18973
-7.56321e-08
5.18973
2.7414e-08
5.18973
-9.68217e-08
5.18973
-6.26924e-08
5.18973
1.72979e-08
5.18973
-1.15143e-07
5.18973
3.57726e-09
-2.27901e-08
5.18973
6.58985
6.76697e-07
-6.58985
6.58985
7.6863e-07
6.58985
9.7529e-07
6.58985
7.43088e-07
6.58985
6.75297e-07
6.58985
6.15794e-07
6.58985
5.34241e-07
6.58985
5.16254e-07
6.58985
2.95174e-07
6.58985
2.73311e-07
6.58985
2.16179e-07
6.58985
2.26122e-07
6.58985
6.22107e-08
6.58985
8.32068e-08
6.58985
1.53107e-07
6.58985
-3.77191e-08
6.58985
8.55463e-08
6.58985
1.89965e-08
6.58985
7.16282e-10
6.58985
-7.72617e-08
6.58985
5.5528e-08
6.58985
-1.87284e-08
6.58985
-2.81044e-08
6.58985
-8.3375e-08
6.58985
5.92321e-08
6.58985
-1.10685e-07
6.58985
-9.59291e-09
6.58985
4.47965e-08
6.58985
-7.23358e-08
6.58985
-1.33801e-08
6.58985
-6.16929e-09
6.58985
3.69876e-08
6.58985
-1.00443e-07
6.58985
-3.46424e-08
6.58985
-2.56216e-08
6.58985
-3.45168e-10
6.58985
2.85356e-08
6.58985
-1.22964e-07
6.58985
5.83162e-08
-6.20719e-08
6.58985
7.34442
6.28301e-07
-7.34442
7.34442
8.02744e-07
7.34442
7.89935e-07
7.34442
7.86664e-07
7.34442
6.74774e-07
7.34442
5.01115e-07
7.34442
4.8597e-07
7.34442
4.42784e-07
7.34442
3.5073e-07
7.34442
3.59902e-07
7.34442
1.92849e-07
7.34442
2.26358e-07
7.34442
1.26724e-07
7.34442
2.30915e-07
7.34442
6.88638e-08
7.34442
1.37219e-07
7.34442
9.66784e-09
7.34442
1.0682e-07
7.34442
2.00961e-08
7.34442
3.19292e-08
7.34442
5.23687e-08
7.34442
6.76732e-08
7.34442
-1.15337e-08
7.34442
9.7744e-08
7.34442
-1.44768e-08
7.34442
7.53645e-08
7.34442
-6.15425e-08
7.34442
7.49681e-08
7.34442
1.2024e-08
7.34442
9.07356e-08
7.34442
-2.65164e-08
7.34442
4.11818e-08
7.34442
1.18368e-08
7.34442
3.80973e-08
7.34442
9.0287e-08
7.34442
-1.44546e-08
7.34442
-5.65692e-08
7.34442
2.14114e-08
7.34442
2.43583e-08
4.57542e-08
7.34442
7.12089
5.75379e-07
-7.12089
7.12089
8.29598e-07
7.1209
7.1764e-07
7.1209
5.55359e-07
7.1209
5.63622e-07
7.1209
5.60716e-07
7.1209
5.44813e-07
7.1209
3.84849e-07
7.1209
3.98086e-07
7.1209
3.09202e-07
7.1209
2.83193e-07
7.1209
2.07191e-07
7.1209
1.73667e-07
7.1209
1.59371e-07
7.1209
2.08122e-07
7.1209
1.15223e-07
7.1209
5.26829e-08
7.1209
1.81491e-07
7.1209
7.06962e-08
7.1209
1.85991e-07
7.1209
-1.07772e-08
7.1209
1.07525e-07
7.1209
4.13533e-09
7.1209
1.43517e-07
7.1209
9.52968e-08
7.1209
2.12705e-08
7.1209
9.32106e-08
7.1209
1.06174e-07
7.1209
1.05367e-07
7.1209
6.6142e-08
7.1209
8.24447e-08
7.1209
3.92296e-08
7.12089
1.01875e-07
7.1209
-7.8737e-09
7.1209
2.89641e-08
7.1209
7.35843e-08
7.12089
1.30588e-07
7.12089
3.26246e-08
7.1209
-3.63434e-08
8.53195e-08
7.12089
6.78106
4.87372e-07
-6.78106
6.78106
7.74872e-07
6.78106
6.0536e-07
6.78106
5.14346e-07
6.78106
5.52451e-07
6.78106
4.2447e-07
6.78106
5.1501e-07
6.78106
3.27552e-07
6.78106
4.15017e-07
6.78106
3.48612e-07
6.78106
2.46454e-07
6.78106
2.78173e-07
6.78106
1.32726e-07
6.78106
3.02607e-07
6.78106
1.11319e-07
6.78106
2.32158e-07
6.78106
1.27769e-07
6.78106
1.45414e-07
6.78106
7.56622e-08
6.78106
1.06558e-07
6.78106
1.36969e-07
6.78106
1.70553e-07
6.78106
1.07512e-07
6.78106
1.34829e-07
6.78106
4.31396e-08
6.78106
1.81447e-07
6.78106
1.04365e-08
6.78106
2.04676e-07
6.78106
8.70549e-08
6.78106
1.50271e-07
6.78106
8.22946e-08
6.78106
5.28215e-08
6.78106
1.76237e-07
6.78106
2.44576e-08
6.78106
1.50873e-07
6.78106
5.43196e-08
6.78106
1.12918e-07
6.78106
6.04415e-08
6.78106
-5.11152e-08
1.64182e-07
6.78106
6.3722
4.28231e-07
-6.3722
6.3722
5.65013e-07
6.3722
4.49577e-07
6.3722
4.95445e-07
6.3722
3.86817e-07
6.3722
4.35537e-07
6.3722
3.96154e-07
6.3722
4.0935e-07
6.3722
2.94021e-07
6.3722
3.68024e-07
6.3722
2.03735e-07
6.3722
3.21927e-07
6.3722
1.59458e-07
6.3722
2.45368e-07
6.3722
1.56816e-07
6.3722
1.65869e-07
6.3722
2.22559e-07
6.3722
9.19779e-08
6.3722
1.48083e-07
6.3722
2.41824e-07
6.3722
1.91353e-08
6.3722
1.15522e-07
6.3722
1.77536e-07
6.3722
5.54321e-08
6.3722
1.24142e-07
6.3722
1.48558e-07
6.3722
7.81245e-08
6.3722
1.85486e-07
6.3722
4.71227e-08
6.3722
1.92153e-07
6.3722
5.56407e-08
6.3722
1.59342e-07
6.3722
6.98069e-08
6.3722
1.05536e-07
6.3722
8.7429e-08
6.3722
1.52407e-07
6.3722
3.79518e-08
6.3722
8.65608e-08
6.3722
2.50062e-08
1.33392e-07
6.3722
5.92757
4.19181e-07
-5.92757
5.92757
4.4178e-07
5.92757
2.01509e-07
5.92757
4.38844e-07
5.92757
3.24838e-07
5.92757
4.27898e-07
5.92757
3.47967e-07
5.92757
3.92676e-07
5.92757
2.56977e-07
5.92757
3.07447e-07
5.92757
3.96854e-07
5.92757
1.55257e-07
5.92757
3.00264e-07
5.92757
2.29727e-07
5.92757
1.9558e-07
5.92757
6.72433e-08
5.92757
1.39319e-07
5.92757
2.99846e-07
5.92757
1.41149e-07
5.92757
2.15097e-07
5.92757
6.56705e-08
5.92757
1.42465e-07
5.92757
-1.1193e-08
5.92757
1.57409e-07
5.92757
2.40294e-07
5.92757
1.26067e-07
5.92757
1.08229e-07
5.92757
5.74954e-08
5.92757
2.23616e-07
5.92757
5.64896e-09
5.92757
1.18645e-07
5.92757
1.93442e-07
5.92757
7.66041e-08
5.92757
1.34465e-07
5.92757
6.38836e-08
5.92757
1.69847e-07
5.92757
2.76679e-08
5.92757
2.25287e-07
5.92757
2.17726e-08
7.91779e-08
5.92757
5.47034
3.78883e-07
-5.47034
5.47034
1.11789e-07
5.47034
2.58841e-07
5.47034
3.74098e-07
5.47034
3.21835e-07
5.47034
2.74127e-07
5.47034
3.77285e-07
5.47034
3.43752e-07
5.47034
3.21805e-07
5.47034
1.3618e-07
5.47034
2.62362e-07
5.47034
3.20578e-07
5.47034
1.33782e-07
5.47034
3.02685e-07
5.47034
1.93167e-07
5.47034
1.135e-07
5.47034
1.62477e-07
5.47034
1.25062e-07
5.47034
2.37811e-07
5.47034
1.01212e-07
5.47034
1.54743e-07
5.47034
2.06634e-08
5.47034
1.38177e-07
5.47034
1.08446e-07
5.47034
1.66909e-07
5.47034
1.00369e-07
5.47034
5.76782e-09
5.47034
1.93328e-07
5.47034
2.48686e-08
5.47034
1.05094e-07
5.47034
2.51769e-07
5.47034
8.67886e-08
5.47034
7.95145e-08
5.47034
5.33707e-08
5.47034
1.56665e-07
5.47034
1.0209e-07
5.47034
5.85094e-09
5.47034
4.0791e-08
5.47034
1.91007e-07
-1.58519e-10
5.47034
5.01647
3.28312e-07
-5.01647
5.01647
7.85823e-08
5.01647
1.42393e-07
5.01647
2.61172e-07
5.01647
1.93043e-07
5.01647
3.05102e-07
5.01647
3.56172e-07
5.01647
3.54184e-07
5.01647
1.85185e-07
5.01647
3.72662e-07
5.01647
2.08638e-07
5.01647
1.7256e-07
5.01647
2.91703e-07
5.01647
1.11506e-07
5.01647
1.5021e-07
5.01647
1.39944e-07
5.01647
2.40168e-07
5.01647
5.1878e-08
5.01647
1.34487e-07
5.01647
1.38313e-07
5.01647
1.11177e-07
5.01647
1.17383e-07
5.01647
2.04363e-07
5.01647
2.31155e-08
5.01647
1.32181e-07
5.01647
1.34208e-07
5.01647
1.86668e-07
5.01647
2.43687e-08
5.01647
1.60328e-07
5.01647
1.45522e-07
5.01647
3.23951e-10
5.01647
2.0723e-07
5.01647
5.11703e-08
5.01647
5.48328e-08
5.01647
1.01205e-07
5.01647
1.99815e-07
5.01647
7.72085e-08
5.01647
8.25736e-08
5.01647
1.05043e-07
-3.05965e-08
5.01647
4.57662
3.80807e-08
-4.57662
4.57662
5.95786e-08
4.57662
3.68482e-08
4.57662
2.32818e-07
4.57662
2.8539e-07
4.57662
2.36275e-07
4.57662
2.6742e-07
4.57662
3.77389e-07
4.57662
1.80769e-07
4.57662
3.0394e-07
4.57662
1.73487e-07
4.57662
2.36194e-07
4.57662
3.88121e-08
4.57662
1.80715e-07
4.57662
1.7528e-07
4.57662
1.36402e-07
4.57662
1.31262e-07
4.57662
1.78449e-07
4.57662
1.15423e-07
4.57662
-4.16553e-08
4.57662
2.50096e-07
4.57662
9.50441e-08
4.57662
3.57683e-08
4.57662
8.96504e-08
4.57662
9.19388e-08
4.57662
6.50156e-08
4.57662
7.12647e-08
4.57662
2.30719e-07
4.57662
4.78983e-08
4.57662
1.31667e-07
4.57662
1.81954e-08
4.57662
1.61406e-07
4.57662
-2.37679e-08
4.57662
9.39888e-08
4.57662
1.18131e-07
4.57662
5.42673e-08
4.57662
4.89444e-08
4.57662
1.10267e-07
4.57662
-1.91601e-09
1.45563e-07
4.57662
4.1577
8.64507e-08
-4.1577
4.1577
-1.25448e-07
4.1577
1.18501e-07
4.1577
1.87694e-07
4.1577
2.75837e-07
4.1577
2.19797e-07
4.1577
2.7591e-07
4.1577
2.39059e-07
4.1577
3.05934e-07
4.1577
1.95994e-07
4.1577
1.69746e-07
4.1577
6.64381e-08
4.1577
2.40277e-07
4.1577
1.0556e-07
4.1577
1.94713e-07
4.1577
9.01529e-08
4.1577
1.87486e-07
4.1577
1.07988e-07
4.1577
-6.29453e-08
4.1577
2.99954e-07
4.1577
-1.09209e-07
4.1577
2.55463e-07
4.1577
8.74894e-08
4.1577
1.42474e-08
4.1577
1.17778e-07
4.1577
2.42458e-08
4.1577
1.23668e-07
4.1577
5.29312e-09
4.1577
1.92249e-07
4.1577
1.092e-07
4.1577
9.90079e-08
4.1577
9.5589e-09
4.1577
8.86799e-08
4.1577
6.25834e-08
4.1577
1.14084e-07
4.1577
4.49452e-08
4.1577
7.78093e-08
4.1577
3.38495e-09
4.1577
1.14724e-07
2.45415e-08
4.1577
3.76385
-1.1614e-07
-3.76385
3.76385
-1.86562e-08
3.76385
9.73798e-11
3.76385
1.42466e-07
3.76385
2.08763e-07
3.76385
2.98508e-07
3.76385
1.42484e-07
3.76385
1.86172e-07
3.76385
2.72583e-07
3.76385
2.50895e-07
3.76385
1.81458e-08
3.76385
2.65308e-07
3.76385
1.20067e-07
3.76385
5.87693e-08
3.76385
5.2524e-08
3.76385
5.25447e-08
3.76385
2.12381e-07
3.76385
6.05717e-08
3.76385
1.48023e-07
3.76385
1.21466e-07
3.76385
2.87337e-08
3.76385
4.20938e-09
3.76385
9.30506e-08
3.76385
-5.24667e-08
3.76385
1.11515e-07
3.76385
1.22211e-07
3.76385
1.2325e-07
3.76385
7.78188e-08
3.76385
-5.75917e-08
3.76385
2.09683e-07
3.76385
-1.04736e-08
3.76385
-1.017e-08
3.76385
8.7297e-08
3.76385
1.46042e-07
3.76385
-1.17747e-08
3.76385
7.09034e-08
3.76385
8.99848e-08
3.76385
9.31631e-08
3.76385
-5.24883e-08
1.42258e-07
3.76385
3.39727
-8.98143e-08
-3.39727
3.39727
2.71898e-08
3.39727
-5.74725e-08
3.39727
2.38639e-07
3.39727
2.15998e-07
3.39727
9.91699e-08
3.39727
2.46845e-07
3.39727
2.15115e-07
3.39727
1.63488e-07
3.39727
1.16854e-07
3.39727
6.95056e-08
3.39727
1.9662e-07
3.39727
1.81537e-07
3.39727
5.53154e-08
3.39727
9.59845e-08
3.39727
6.57222e-08
3.39727
6.37222e-08
3.39727
3.35422e-08
3.39727
5.07433e-08
3.39727
9.58858e-08
3.39727
3.50829e-08
3.39727
8.21045e-08
3.39727
9.99813e-08
3.39727
7.50968e-08
3.39727
7.63511e-08
3.39727
5.51279e-08
3.39727
1.01676e-07
3.39727
-1.10893e-08
3.39727
-1.7732e-08
3.39727
1.27093e-07
3.39727
9.0548e-08
3.39727
6.47133e-08
3.39727
2.44109e-08
3.39727
9.47649e-09
3.39727
1.60348e-07
3.39727
4.27496e-08
3.39727
-1.55411e-08
3.39727
1.56531e-07
3.39727
-1.09406e-07
7.26963e-08
3.39727
3.05875
-8.42927e-08
-3.05875
3.05875
-1.07954e-07
3.05875
1.53322e-07
3.05875
3.14269e-08
3.05875
1.45812e-07
3.05875
3.00072e-07
3.05875
3.54054e-08
3.05875
2.11524e-07
3.05875
2.06968e-07
3.05875
1.1838e-07
3.05875
9.4524e-08
3.05875
7.59139e-09
3.05875
1.4143e-07
3.05875
-3.79458e-09
3.05875
1.80678e-07
3.05875
3.49793e-08
3.05875
-1.45888e-08
3.05875
6.25289e-08
3.05875
1.16381e-07
3.05875
5.79854e-08
3.05875
4.12124e-08
3.05875
-1.53064e-08
3.05875
3.81418e-08
3.05875
1.20446e-07
3.05875
7.18128e-08
3.05875
-6.47695e-08
3.05875
1.2216e-07
3.05875
-1.00148e-08
3.05875
1.28057e-07
3.05875
5.84382e-08
3.05875
4.05113e-08
3.05875
-2.71272e-08
3.05875
-2.38793e-08
3.05875
1.71499e-07
3.05875
-8.85774e-08
3.05875
7.23657e-08
3.05875
1.63497e-07
3.05875
-5.87806e-08
3.05875
2.08891e-08
2.62835e-08
3.05875
2.74812
-1.1488e-07
-2.74812
2.74812
-8.31308e-08
2.74812
2.12003e-08
2.74812
2.59003e-07
2.74812
4.94348e-08
2.74812
2.14203e-07
2.74812
8.90994e-08
2.74812
1.52475e-07
2.74812
5.83569e-08
2.74812
6.26397e-08
2.74812
8.62855e-08
2.74812
1.92888e-07
2.74812
-8.10441e-08
2.74812
9.96637e-08
2.74812
9.42431e-08
2.74812
9.97535e-08
2.74812
-5.50094e-09
2.74812
9.15523e-08
2.74812
-5.63405e-08
2.74812
-2.71163e-08
2.74812
1.09891e-07
2.74812
1.40434e-07
2.74812
-7.81949e-09
2.74812
9.31127e-08
2.74812
-1.16451e-08
2.74812
1.03317e-09
2.74812
-2.52102e-09
2.74812
1.88182e-07
2.74812
-8.25505e-08
2.74812
3.78539e-08
2.74812
6.60169e-08
2.74812
8.75125e-08
2.74812
3.99683e-10
2.74812
8.08516e-08
2.74812
-3.73761e-08
2.74812
1.37787e-07
2.74812
-8.33754e-08
2.74812
8.09523e-08
2.74812
1.8862e-08
4.86802e-08
2.74812
2.46457
-1.61869e-07
-2.46457
2.46457
-1.30882e-07
2.46457
1.4679e-07
2.46457
1.55556e-07
2.46457
1.68033e-08
2.46457
2.37176e-07
2.46457
8.94467e-09
2.46457
1.60702e-07
2.46457
-8.15794e-08
2.46457
1.42278e-07
2.46457
1.05988e-08
2.46457
2.11829e-08
2.46457
5.52383e-08
2.46457
2.324e-07
2.46457
-8.23344e-08
2.46457
1.14177e-07
2.46457
-2.33035e-08
2.46457
7.77969e-08
2.46457
4.48155e-08
2.46457
-9.85172e-08
2.46457
1.59107e-07
2.46457
1.6948e-08
2.46457
-1.70621e-08
2.46457
8.79388e-08
2.46457
-5.09175e-08
2.46457
1.52889e-07
2.46457
-1.62897e-07
2.46457
2.42751e-08
2.46457
5.74366e-08
2.46457
8.15904e-08
2.46457
-5.02517e-08
2.46457
1.90092e-07
2.46457
-4.98559e-08
2.46457
1.18624e-07
2.46457
-1.04698e-07
2.46457
1.2841e-07
2.46457
-1.37772e-08
2.46457
-5.19387e-08
2.46457
8.60256e-08
9.27015e-08
2.46457
2.20683
-1.96904e-07
-2.20683
2.20683
5.71372e-08
2.20683
1.11802e-07
2.20683
-6.84653e-08
2.20683
2.27836e-07
2.20683
-2.05493e-08
2.20683
1.98867e-07
2.20683
-3.88591e-08
2.20683
7.68024e-09
2.20683
1.02381e-07
2.20683
6.4767e-08
2.20683
8.29845e-08
2.20683
-2.3921e-08
2.20683
5.97912e-08
2.20683
-1.67504e-08
2.20683
-1.12015e-08
2.20683
5.67335e-08
2.20683
-3.30604e-08
2.20683
1.44608e-07
2.20683
-6.23006e-08
2.20683
1.09133e-07
2.20683
-9.70684e-08
2.20683
7.98687e-08
2.20683
-7.22855e-09
2.20683
5.95548e-08
2.20683
7.04001e-08
2.20683
-7.14838e-09
2.20683
8.38797e-08
2.20683
-2.42235e-08
2.20683
4.03666e-09
2.20683
-3.42689e-08
2.20683
7.26994e-08
2.20683
1.2048e-07
2.20683
-1.0452e-07
2.20683
1.19095e-07
2.20683
-1.1808e-07
2.20683
1.79999e-07
2.20683
-2.56173e-08
2.20683