/*--------------------------------*- C++ -*----------------------------------*\
| =========                 |                                                 |
| \\      /  F ield         | OpenFOAM: The Open Source CFD Toolbox           |
|  \\    /   O peration     | Version:  2412                                  |
|   \\  /    A nd           | Website:  www.openfoam.com                      |
|    \\/     M anipulation  |                                                 |
\*---------------------------------------------------------------------------*/
FoamFile
{
    version     2.0;
    format      ascii;
    arch        "LSB;label=32;scalar=64";
    class       volVectorField;
    location    "1000";
    object      U;
}
// * * * * * * * * * * * * * * * * * * * * * * * * * * * * * * * * * * * * * //

dimensions      [0 1 -1 0 0 0 0];

internalField   nonuniform List<vector> 
6400
(
(-99.4338 2.00339 2.0987e-21)
(-99.2785 5.90554 0)
(-98.9701 9.79864 0)
(-98.5091 13.6766 0)
(-97.8962 17.5335 1.67717e-20)
(-97.1324 21.3634 5.78797e-23)
(-96.2187 25.1603 1.79313e-24)
(-95.1568 28.9185 1.67696e-20)
(-93.9481 32.632 1.67731e-20)
(-92.5945 36.2952 -3.61303e-24)
(-91.0982 39.9025 -3.03774e-27)
(-89.4614 43.4482 3.35437e-20)
(-87.6867 46.927 1.19791e-22)
(-85.7767 50.3334 1.12614e-22)
(-83.7345 53.6621 0)
(-81.5632 56.9082 0)
(-79.2661 60.0664 1.16432e-22)
(-76.8468 63.1321 3.3425e-20)
(-74.309 66.1004 3.35414e-20)
(-71.6566 68.9668 0)
(-68.8937 71.7269 0)
(-66.0246 74.3763 -3.35413e-20)
(-63.0537 76.9111 -3.34248e-20)
(-59.9856 79.3273 -1.1654e-22)
(-56.825 81.6211 0)
(-53.5767 83.7892 0)
(-50.2459 85.828 -1.2023e-22)
(-46.8376 87.7344 -1.12953e-22)
(-43.357 89.5056 -3.35394e-20)
(-39.8096 91.1388 2.87772e-28)
(-36.2008 92.6315 -3.64552e-24)
(-32.5362 93.9813 -1.67688e-20)
(-28.8214 95.1862 -1.67724e-20)
(-25.0622 96.2443 1.82365e-24)
(-21.2644 97.1541 -5.74618e-23)
(-17.4337 97.914 -1.67714e-20)
(-13.5762 98.523 8.38527e-21)
(-9.69774 98.98 0)
(-5.80433 99.2844 0)
(-1.90196 99.4358 -2.09631e-21)
(-98.3314 1.93526 -3.85386e-21)
(-98.1796 5.79413 -2.03103e-20)
(-97.8764 9.64418 -9.06752e-22)
(-97.4223 13.4794 4.15247e-20)
(-96.818 17.2937 -2.7176e-20)
(-96.0644 21.0815 1.81325e-21)
(-95.1627 24.8367 -8.6673e-20)
(-94.1143 28.5536 -1.13847e-19)
(-92.9207 32.2265 1.46171e-19)
(-91.5839 35.8497 -1.73344e-19)
(-90.1058 39.4176 0)
(-88.4888 42.9248 -2.24064e-19)
(-86.7354 46.3657 -3.62636e-21)
(-84.8482 49.7352 3.62635e-21)
(-82.8302 53.028 -3.62635e-21)
(-80.6844 56.239 0)
(-78.4143 59.3633 1.73343e-19)
(-76.0233 62.3961 -2.31315e-19)
(-73.515 65.3326 1.22623e-19)
(-70.8934 68.1684 -1.73343e-19)
(-68.1624 70.8991 1.73343e-19)
(-65.3264 73.5205 -1.1537e-19)
(-62.3896 76.0285 2.24062e-19)
(-59.3567 78.4193 -1.73343e-19)
(-56.2322 80.6892 0)
(-53.021 82.8347 -3.62633e-21)
(-49.728 84.8524 3.62633e-21)
(-46.3584 86.7393 -3.62633e-21)
(-42.9173 88.4924 2.31315e-19)
(-39.41 90.1091 0)
(-35.8419 91.5869 1.73343e-19)
(-32.2186 92.9234 -1.4617e-19)
(-28.5456 94.1167 1.13844e-19)
(-24.8286 95.1648 8.66712e-20)
(-21.0733 96.0662 1.81316e-21)
(-17.2855 96.8195 -5.94984e-20)
(-13.4711 97.4235 -5.87351e-20)
(-9.63588 97.8772 -9.0658e-22)
(-5.7858 98.1801 2.30276e-20)
(-1.92681 98.3315 2.94329e-21)
(-97.0999 1.90366 0)
(-96.9503 5.71423 2.40465e-20)
(-96.6513 9.51609 0)
(-96.2031 13.3033 -4.80897e-20)
(-95.6067 17.0699 4.12979e-21)
(-94.8628 20.8103 -1.65151e-19)
(-93.9727 24.5185 -7.31046e-20)
(-92.9376 28.189 9.61756e-20)
(-91.7593 31.8159 -1.92351e-19)
(-90.4394 35.3939 1.9235e-19)
(-88.9802 38.9172 -3.2204e-19)
(-87.3837 42.3805 1.8409e-19)
(-85.6524 45.7785 0)
(-83.7892 49.1059 -3.30299e-19)
(-81.7967 52.3576 3.38558e-19)
(-79.6781 55.5286 -3.38558e-19)
(-77.4366 58.6139 -1.92349e-19)
(-75.0757 61.6089 1.92349e-19)
(-72.5991 64.5088 -1.92349e-19)
(-70.0105 67.3093 1.92349e-19)
(-67.314 70.006 -1.92349e-19)
(-64.5136 72.5948 1.92349e-19)
(-61.6139 75.0716 -1.92349e-19)
(-58.6191 77.4327 1.92349e-19)
(-55.5339 79.6744 3.22039e-19)
(-52.363 81.7932 -3.22039e-19)
(-49.1115 83.7859 3.30298e-19)
(-45.7842 85.6494 0)
(-42.3863 87.3809 -2.00608e-19)
(-38.9231 88.9776 3.38557e-19)
(-35.3998 90.4371 -1.92348e-19)
(-31.822 91.7572 1.92348e-19)
(-28.1951 92.9357 -9.61741e-20)
(-24.5247 93.971 6.48452e-20)
(-20.8165 94.8614 7.45763e-28)
(-17.0762 95.6055 1.00304e-19)
(-13.3096 96.2022 4.8087e-20)
(-9.52249 96.6506 0)
(-5.72066 96.9499 -2.40435e-20)
(-1.91001 97.0998 0)
(-95.7268 1.87923 0)
(-95.5792 5.63593 3.49789e-21)
(-95.2843 9.38401 -3.49789e-21)
(-94.8424 13.1176 6.99556e-21)
(-94.2543 16.831 6.99547e-21)
(-93.5208 20.5184 1.54582e-19)
(-92.6432 24.1742 -6.67001e-20)
(-91.6227 27.7927 0)
(-90.4609 31.3684 0)
(-89.1596 34.8957 5.40497e-19)
(-87.7209 38.3692 3.79115e-19)
(-86.1469 41.7835 -1.84558e-26)
(-84.4401 45.1334 -5.82469e-19)
(-82.6031 48.4137 -1.334e-19)
(-80.6387 51.6194 -3.37141e-19)
(-78.5499 54.7454 -1.89364e-19)
(-76.3401 57.7871 0)
(-74.0125 60.7396 0)
(-71.5708 63.5985 0)
(-69.0188 66.3593 5.26505e-19)
(-66.3603 69.0178 -5.26505e-19)
(-63.5995 71.5699 0)
(-60.7407 74.0116 0)
(-57.7881 76.3392 0)
(-54.7465 78.5491 1.334e-19)
(-51.6205 80.6379 3.93104e-19)
(-48.4149 82.6024 -3.37141e-19)
(-45.1346 84.4394 4.70541e-19)
(-41.7847 86.1463 2.44582e-27)
(-38.3704 87.7204 -3.51132e-19)
(-34.8969 89.1591 -5.12514e-19)
(-31.3697 90.4605 0)
(-27.794 91.6223 0)
(-24.1755 92.6428 9.46818e-20)
(-20.5197 93.5205 -2.79816e-20)
(-16.8323 94.254 2.70247e-19)
(-13.1189 94.8422 6.99541e-21)
(-9.38534 95.2841 -3.4977e-21)
(-5.63727 95.5791 6.93107e-20)
(-1.8805 95.7268 0)
(-94.1983 1.85064 0)
(-94.053 5.54736 1.05852e-20)
(-93.7627 9.2356 -6.94434e-26)
(-93.3278 12.9096 -1.05851e-20)
(-92.749 16.5637 0)
(-92.0272 20.1922 -3.85666e-19)
(-91.1636 23.7896 -1.17202e-19)
(-90.1593 27.3503 2.65038e-26)
(-89.016 30.8689 7.92498e-19)
(-87.7355 34.3398 1.49724e-19)
(-86.3197 37.7578 -6.86649e-19)
(-84.7707 41.1176 7.28988e-19)
(-83.0911 44.414 5.79263e-19)
(-81.2834 47.6419 5.79263e-19)
(-79.3503 50.7963 0)
(-77.2949 53.8725 5.79263e-19)
(-75.1202 56.8655 0)
(-72.8298 59.7709 7.28987e-19)
(-70.4271 62.5841 8.46787e-20)
(-67.9157 65.3008 -6.21602e-19)
(-65.2997 67.9168 5.36923e-19)
(-62.5829 70.4281 8.46787e-20)
(-59.7697 72.8308 -8.13665e-19)
(-56.8643 75.1212 0)
(-53.8712 77.2957 -5.79262e-19)
(-50.795 79.3511 0)
(-47.6406 81.2841 0)
(-44.4126 83.0918 -5.79262e-19)
(-41.1162 84.7714 -4.23393e-20)
(-37.7564 86.3203 8.56004e-19)
(-34.3384 87.736 -2.34403e-19)
(-30.8674 89.0165 2.11697e-20)
(-27.3489 90.1597 -2.01609e-27)
(-23.7881 91.1639 7.48621e-20)
(-20.1907 92.0276 3.85663e-19)
(-16.5621 92.7493 -2.89631e-19)
(-12.9081 93.328 -1.05848e-20)
(-9.23406 93.7628 1.15755e-27)
(-5.54583 94.0531 -1.58239e-19)
(-1.84905 94.1983 0)
(-92.4994 1.8174 -7.49979e-21)
(-92.3568 5.44745 -1.26292e-19)
(-92.0717 9.06917 2.37586e-19)
(-91.6447 12.6769 2.17493e-25)
(-91.0763 16.2651 2.99987e-20)
(-90.3676 19.8282 4.21812e-19)
(-89.5194 23.3607 -1.13349e-19)
(-88.5333 26.8572 0)
(-87.4106 30.3123 -8.43621e-19)
(-86.1532 33.7206 -8.4362e-19)
(-84.7629 37.077 7.83623e-19)
(-83.2419 40.3762 -7.23626e-19)
(-81.5926 43.6131 -5.99968e-20)
(-79.8174 46.7828 1.07032e-18)
(-77.9192 49.8804 1.13031e-18)
(-75.9008 52.901 5.99968e-20)
(-73.7654 55.8401 -1.19994e-19)
(-71.5163 58.693 -8.43618e-19)
(-69.1569 61.4555 -1.07032e-18)
(-66.6908 64.1232 0)
(-64.1219 66.692 0)
(-61.4542 69.158 1.07032e-18)
(-58.6917 71.5174 8.43618e-19)
(-55.8387 73.7665 -1.19994e-19)
(-52.8995 75.9018 5.99968e-20)
(-49.8789 77.9201 -1.01032e-18)
(-46.7813 79.8183 -1.07032e-18)
(-43.6116 81.5934 -5.99968e-20)
(-40.3746 83.2427 1.19994e-19)
(-37.0754 84.7636 -9.03615e-19)
(-33.719 86.1538 8.43618e-19)
(-30.3106 87.4112 0)
(-26.8555 88.5338 0)
(-23.359 89.5199 1.13349e-19)
(-19.8264 90.3679 -4.21809e-19)
(-16.2633 91.0766 -5.05159e-19)
(-12.6751 91.6449 -2.39028e-27)
(-9.0674 92.0719 -2.97577e-19)
(-5.44568 92.3569 1.12952e-19)
(-1.81557 92.4995 -7.49959e-21)
(-90.6146 1.78042 -1.01399e-20)
(-90.4749 5.33651 3.33623e-19)
(-90.1956 8.88443 -3.31087e-19)
(-89.7773 12.4186 3.96997e-19)
(-89.2205 15.9337 0)
(-88.5262 19.4242 7.12873e-19)
(-87.6953 22.8847 1.29392e-18)
(-86.7293 26.31 0)
(-85.6295 29.6947 8.11179e-20)
(-84.3977 33.0336 -8.11179e-20)
(-83.0357 36.3216 -1.62236e-19)
(-81.5457 39.5535 -1.26351e-18)
(-79.93 42.7245 -1.62235e-19)
(-78.191 45.8296 4.25886e-19)
(-76.3314 48.864 -1.32432e-18)
(-74.3542 51.8231 1.62235e-19)
(-72.2623 54.7023 -1.58798e-18)
(-70.059 57.4971 1.62235e-19)
(-67.7477 60.2033 2.58783e-18)
(-65.3319 62.8166 0)
(-62.8153 65.3331 0)
(-60.2019 67.7489 -2.58783e-18)
(-57.4957 70.0602 1.62235e-19)
(-54.7008 72.2634 1.2635e-18)
(-51.8216 74.3552 1.62235e-19)
(-48.8625 76.3324 9.99853e-19)
(-45.828 78.1919 -1.01415e-19)
(-42.7229 79.9308 -1.62235e-19)
(-39.5519 81.5465 1.58797e-18)
(-36.3199 83.0364 -1.62235e-19)
(-33.0319 84.3983 -8.11177e-20)
(-29.6929 85.6301 8.11177e-20)
(-26.3082 86.7298 0)
(-22.883 87.6958 -1.29391e-18)
(-19.4224 88.5266 -7.12869e-19)
(-15.9319 89.2208 5.81044e-19)
(-12.4168 89.7775 -3.15876e-19)
(-8.88259 90.1958 2.49963e-19)
(-5.33467 90.475 -1.68078e-19)
(-1.77852 90.6147 -1.01397e-20)
(-88.5275 1.73958 -2.64075e-20)
(-88.3909 5.21377 6.41199e-20)
(-88.1181 8.67997 4.06138e-19)
(-87.7094 12.1328 -3.30712e-19)
(-87.1655 15.5669 0)
(-86.4871 18.977 -1.57932e-18)
(-85.6754 22.3578 -1.79058e-18)
(-84.7316 25.7042 0)
(-83.6571 29.0109 -2.11258e-19)
(-82.4537 32.2729 -1.8358e-18)
(-81.1231 35.4851 2.04706e-18)
(-79.6674 38.6426 1.53409e-18)
(-78.0888 41.7406 2.04705e-18)
(-76.3899 44.7741 -1.53409e-18)
(-74.5732 47.7387 1.62454e-18)
(-72.6415 50.6296 -2.11258e-19)
(-70.5978 53.4425 1.95661e-18)
(-68.4452 56.1729 1.62454e-18)
(-66.1871 58.8168 -1.53409e-18)
(-63.8269 61.3699 0)
(-61.3684 63.8284 0)
(-58.8151 66.1885 1.53409e-18)
(-56.1713 68.4466 -2.04705e-18)
(-53.4407 70.5991 -1.11158e-18)
(-50.6278 72.6427 -2.11258e-19)
(-47.7369 74.5743 -2.04705e-18)
(-44.7723 76.391 1.53409e-18)
(-41.7387 78.0898 -1.62454e-18)
(-38.6407 79.6683 -1.53409e-18)
(-35.4831 81.1239 -1.62454e-18)
(-32.2709 82.4544 1.83579e-18)
(-29.0089 83.6578 -2.11258e-19)
(-25.7021 84.7322 0)
(-22.3557 85.6759 1.57931e-18)
(-18.9749 86.4875 1.79057e-18)
(-15.5647 87.1658 0)
(-12.1306 87.7097 4.36337e-19)
(-8.67782 88.1183 -5.11763e-19)
(-5.21162 88.3911 -1.13056e-20)
(-1.73738 88.5275 -2.64072e-20)
(-86.2211 1.69444 0)
(-86.0881 5.07813 -5.30802e-19)
(-85.8224 8.45402 -1.06161e-18)
(-85.4243 11.8169 1.14633e-18)
(-84.8945 15.1615 -1.14633e-18)
(-84.2338 18.4827 9.76879e-19)
(-83.4432 21.7755 7.10669e-19)
(-82.524 25.0347 2.29265e-18)
(-81.4775 28.2552 -2.02644e-18)
(-80.3054 31.4323 1.95375e-18)
(-79.0095 34.5608 -1.68754e-18)
(-77.5917 37.636 -2.66209e-19)
(-76.0543 40.6533 -1.95375e-18)
(-74.3996 43.6078 0)
(-72.6302 46.4951 -1.42133e-18)
(-70.7488 49.3107 -5.32419e-19)
(-68.7584 52.0503 -2.29264e-18)
(-66.6619 54.7096 -1.95375e-18)
(-64.4626 57.2845 0)
(-62.1639 59.7712 -2.29264e-18)
(-59.7694 62.1656 2.29264e-18)
(-57.2827 64.4642 0)
(-54.7077 66.6634 1.95375e-18)
(-52.0483 68.7598 2.29264e-18)
(-49.3087 70.7502 -5.32418e-19)
(-46.493 72.6315 2.48617e-18)
(-43.6057 74.4009 0)
(-40.6511 76.0554 1.95375e-18)
(-37.6338 77.5928 -2.66209e-19)
(-34.5585 79.0104 2.21996e-18)
(-31.43 80.3063 -1.95375e-18)
(-28.2529 81.4783 2.55885e-18)
(-25.0323 82.5247 -2.29264e-18)
(-21.7731 83.4438 -1.24308e-18)
(-18.4803 84.2343 -9.76875e-19)
(-15.1591 84.8949 1.14632e-18)
(-11.8144 85.4246 -1.14632e-18)
(-8.45155 85.8226 1.0616e-18)
(-5.07565 86.0882 5.30799e-19)
(-1.69193 86.2211 0)
(-83.6781 1.64458 0)
(-83.549 4.92848 3.01009e-19)
(-83.2911 8.20479 -9.31126e-20)
(-82.9048 11.4685 -2.75694e-18)
(-82.3906 14.7144 2.75694e-18)
(-81.7494 17.9377 0)
(-80.9822 21.1334 1.39026e-18)
(-80.09 24.2964 -5.18858e-18)
(-79.0744 27.422 2.40806e-18)
(-77.9369 30.5053 2.78052e-18)
(-76.6791 33.5416 0)
(-75.3032 36.5261 0)
(-73.8111 39.4544 6.5058e-19)
(-72.2052 42.3217 -6.5058e-19)
(-70.488 45.1239 -6.5058e-19)
(-68.6621 47.8564 1.30116e-18)
(-66.7304 50.5152 1.75748e-18)
(-64.6957 53.0961 0)
(-62.5613 55.5951 0)
(-60.3304 58.0084 2.40806e-18)
(-58.0065 60.3322 -2.40806e-18)
(-55.5931 62.563 0)
(-53.094 64.6973 0)
(-50.5131 66.7319 -3.05864e-18)
(-47.8543 68.6636 1.30116e-18)
(-45.1217 70.4894 -6.5058e-19)
(-42.3195 72.2066 -6.5058e-19)
(-39.452 73.8123 6.5058e-19)
(-36.5238 75.3043 0)
(-33.5392 76.6802 0)
(-30.5029 77.9378 -2.78051e-18)
(-27.4195 79.0752 -2.40806e-18)
(-24.2939 80.0908 5.18857e-18)
(-21.1308 80.9828 -1.39026e-18)
(-17.9352 81.7499 0)
(-14.7118 82.391 -2.43164e-18)
(-11.4658 82.9051 2.43164e-18)
(-8.20216 83.2913 9.31131e-20)
(-4.92584 83.5491 -3.01007e-19)
(-1.64191 83.6781 0)
(-80.881 1.58961 0)
(-80.7563 4.76374 0)
(-80.507 7.93054 7.18925e-19)
(-80.1336 11.0851 1.43785e-18)
(-79.6366 14.2226 -1.43785e-18)
(-79.0168 17.3381 3.85621e-19)
(-78.2752 20.427 -1.86069e-19)
(-77.4129 23.4843 3.64693e-18)
(-76.4313 26.5054 -2.43667e-25)
(-75.3317 29.4856 -2.87569e-18)
(-74.116 32.4204 -7.71241e-19)
(-72.7861 35.3052 0)
(-71.3439 38.1355 2.50355e-18)
(-69.7917 40.9071 -2.50355e-18)
(-68.1319 43.6156 0)
(-66.367 46.2568 7.7124e-19)
(-64.4998 48.8267 2.50355e-18)
(-62.5332 51.3213 -2.50355e-18)
(-60.4701 53.7368 -7.7124e-19)
(-58.3138 56.0694 0)
(-56.0675 58.3155 0)
(-53.7349 60.4718 -7.7124e-19)
(-51.3193 62.5348 4.04603e-18)
(-48.8246 64.5013 -4.04603e-18)
(-46.2547 66.3685 7.7124e-19)
(-43.6134 68.1332 0)
(-40.9049 69.793 4.04603e-18)
(-38.1333 71.3451 -4.04603e-18)
(-35.3029 72.7872 0)
(-32.4181 74.117 -4.04603e-18)
(-29.4833 75.3326 2.87569e-18)
(-26.503 76.4321 3.55276e-26)
(-23.4818 77.4136 -2.10445e-18)
(-20.4245 78.2758 -5.85172e-19)
(-17.3357 79.0174 3.8562e-19)
(-14.2201 79.637 1.43784e-18)
(-11.0826 80.1339 -1.43784e-18)
(-7.92799 80.5072 -1.53762e-18)
(-4.76118 80.7564 0)
(-1.58703 80.8811 0)
(-77.8125 1.52913 -1.1083e-19)
(-77.6925 4.58285 -3.57025e-19)
(-77.4527 7.6295 0)
(-77.0935 10.6644 0)
(-76.6153 13.6828 4.43319e-19)
(-76.0191 16.6802 -4.43319e-19)
(-75.3056 19.6518 -2.55033e-18)
(-74.476 22.5932 4.62947e-18)
(-73.5316 25.4997 0)
(-72.4738 28.3668 0)
(-71.3043 31.1903 -4.62947e-18)
(-70.0248 33.9656 1.31359e-25)
(-68.6373 36.6886 -1.55411e-18)
(-67.144 39.355 6.18358e-18)
(-65.5472 41.9607 0)
(-63.8492 44.5017 0)
(-62.0529 46.9741 -3.32738e-18)
(-60.1609 49.3741 3.32738e-18)
(-58.1761 51.6979 0)
(-56.1015 53.9421 0)
(-53.9405 56.103 0)
(-51.6964 58.1774 0)
(-49.3725 60.1622 -3.32738e-18)
(-46.9724 62.0541 3.32738e-18)
(-44.5 63.8504 0)
(-41.9589 65.5483 0)
(-39.3532 67.145 -7.95684e-18)
(-36.6867 68.6383 5.10065e-18)
(-33.9637 70.0257 -3.68648e-26)
(-31.1883 71.3051 6.18357e-18)
(-28.3649 72.4746 0)
(-25.4977 73.5323 0)
(-22.5911 74.4766 -2.85619e-18)
(-19.6498 75.3061 7.77054e-19)
(-16.6781 76.0195 -4.43318e-19)
(-13.6808 76.6157 4.43318e-19)
(-10.6623 77.0937 0)
(-7.62739 77.4529 -1.03862e-19)
(-4.58072 77.6926 5.78683e-19)
(-1.52699 77.8126 -1.10829e-19)
(-74.4555 1.46276 -2.592e-19)
(-74.3406 4.38474 4.6608e-19)
(-74.1112 7.29995 0)
(-73.7675 10.2039 4.93873e-19)
(-73.31 13.0921 -4.93873e-19)
(-72.7395 15.9602 -9.87745e-19)
(-72.0568 18.8036 1.97549e-18)
(-71.263 21.618 -3.72864e-18)
(-70.3594 24.3992 -1.97549e-18)
(-69.3472 27.1426 9.87744e-19)
(-68.2281 29.8443 3.72864e-18)
(-67.0039 32.4999 -4.14721e-18)
(-65.6763 35.1054 -4.14721e-18)
(-64.2474 37.6568 -7.87584e-18)
(-62.7195 40.1501 0)
(-61.0948 42.5815 0)
(-59.376 44.9472 -1.97549e-18)
(-57.5656 47.2436 3.95097e-18)
(-55.6664 49.4672 8.29441e-18)
(-53.6814 51.6146 -1.97549e-18)
(-51.6137 53.6823 -1.97549e-18)
(-49.4663 55.6672 7.14973e-26)
(-47.2427 57.5664 1.22454e-17)
(-44.9462 59.3767 -1.97549e-18)
(-42.5805 61.0955 0)
(-40.149 62.7201 0)
(-37.6557 64.248 7.87583e-18)
(-35.1043 65.6768 4.1472e-18)
(-32.4988 67.0044 4.1472e-18)
(-29.8431 68.2286 -3.72863e-18)
(-27.1415 69.3476 9.87742e-19)
(-24.398 70.3598 -1.97548e-18)
(-21.6169 71.2634 3.72863e-18)
(-18.8024 72.0571 1.97548e-18)
(-15.959 72.7397 -9.87742e-19)
(-13.0909 73.3102 -4.93871e-19)
(-10.2027 73.7676 4.93871e-19)
(-7.29871 74.1113 1.96896e-18)
(-4.38349 74.3407 -4.66079e-19)
(-1.4615 74.4555 2.592e-19)
(-70.7934 1.39017 2.52789e-19)
(-70.6842 4.16844 0)
(-70.4661 6.94027 5.80047e-19)
(-70.1393 9.70139 -1.6929e-18)
(-69.7043 12.4476 -1.0656e-18)
(-69.1619 15.1745 2.44663e-25)
(-68.5128 17.8781 1.0656e-18)
(-67.7581 20.5541 0)
(-66.8989 23.1985 4.45139e-18)
(-65.9366 25.807 -6.5826e-18)
(-64.8726 28.3758 2.1312e-18)
(-63.7085 30.9008 4.04463e-18)
(-62.4463 33.3781 1.91343e-18)
(-61.0877 35.804 6.17584e-18)
(-59.6349 38.1747 0)
(-58.0902 40.4866 -2.1312e-18)
(-56.4559 42.736 -4.64037e-18)
(-54.7346 44.9195 -1.1034e-17)
(-52.9289 47.0337 -1.91232e-17)
(-51.0415 49.0754 2.1312e-18)
(-49.0755 51.0415 2.1312e-18)
(-47.0338 52.9288 6.77157e-18)
(-44.9195 54.7345 -1.31769e-18)
(-42.736 56.4559 4.26241e-18)
(-40.4867 58.0901 -2.1312e-18)
(-38.1748 59.6349 0)
(-35.8041 61.0876 -1.91343e-18)
(-33.3783 62.4462 -6.17583e-18)
(-30.9009 63.7085 -4.04463e-18)
(-28.3759 64.8725 2.1312e-18)
(-25.8071 65.9365 2.32018e-18)
(-23.1986 66.8989 -4.45139e-18)
(-20.5542 67.7581 0)
(-17.8782 68.5128 1.0656e-18)
(-15.1746 69.1619 -4.86089e-26)
(-12.4477 69.7043 -1.0656e-18)
(-9.70149 70.1392 2.75849e-18)
(-6.94036 70.466 -2.6568e-18)
(-4.16852 70.6842 0)
(-1.39026 70.7934 -2.52789e-19)
(-66.8106 1.31108 0)
(-66.7076 3.93304 5.5649e-19)
(-66.5018 6.54893 -4.61488e-19)
(-66.1934 9.15472 2.1233e-18)
(-65.7829 11.7464 1.11298e-18)
(-65.2711 14.32 1.11298e-18)
(-64.6586 16.8715 1.74691e-19)
(-63.9463 19.3969 -2.40065e-18)
(-63.1355 21.8925 -4.2466e-18)
(-62.2273 24.3543 -3.80008e-19)
(-61.2232 26.7786 2.22596e-18)
(-60.1247 29.1615 -2.22596e-18)
(-58.9335 31.4995 0)
(-57.6514 33.789 -4.45192e-18)
(-56.2804 36.0263 4.45192e-18)
(-54.8226 38.2081 4.45192e-18)
(-53.2803 40.3309 -4.10633e-19)
(-51.6558 42.3916 8.4932e-18)
(-49.9517 44.3869 1.29451e-17)
(-48.1706 46.3138 -9.25321e-18)
(-46.3152 48.1693 9.25321e-18)
(-44.3883 49.9505 -4.04128e-18)
(-42.3931 51.6546 -8.4932e-18)
(-40.3324 53.2792 -8.90383e-18)
(-38.2096 54.8215 4.45192e-18)
(-36.0279 56.2794 -4.8013e-18)
(-33.7906 57.6504 -4.45191e-18)
(-31.5012 58.9326 0)
(-29.1632 60.1239 -2.22596e-18)
(-26.7803 61.2225 2.22596e-18)
(-24.3561 62.2267 3.80007e-19)
(-21.8943 63.1349 4.2466e-18)
(-19.3987 63.9458 6.85256e-18)
(-16.8733 64.6581 -9.07852e-18)
(-14.3218 65.2707 1.11298e-18)
(-11.7482 65.7826 1.11298e-18)
(-9.15657 66.1931 -2.1233e-18)
(-6.55078 66.5016 -6.51491e-19)
(-3.93489 66.7075 5.56489e-19)
(-1.31293 66.8105 0)
(-62.4926 1.22526 2.8146e-19)
(-62.3963 3.67777 8.82994e-19)
(-62.2038 6.1246 -1.07939e-18)
(-61.9154 8.56198 1.20307e-18)
(-61.5315 10.9862 -1.20307e-18)
(-61.0528 13.3934 0)
(-60.4799 15.78 -4.31755e-18)
(-59.8137 18.1423 2.06587e-18)
(-59.0554 20.4765 6.9095e-18)
(-58.2059 22.7793 4.31755e-18)
(-57.2667 25.0469 4.65782e-18)
(-56.2393 27.2758 0)
(-55.1251 29.4627 -9.31564e-18)
(-53.9259 31.6042 0)
(-52.6435 33.697 0)
(-51.28 35.7378 -1.3819e-17)
(-49.8374 37.7235 4.50336e-18)
(-48.3179 39.651 -9.31563e-18)
(-46.724 41.5174 4.50336e-18)
(-45.058 43.3197 4.13173e-18)
(-43.3226 45.0553 -1.31385e-17)
(-41.5203 46.7214 4.50336e-18)
(-39.654 48.3155 9.31563e-18)
(-37.7266 49.835 -4.81227e-18)
(-35.741 51.2777 4.81227e-18)
(-33.7003 52.6414 8.63509e-18)
(-31.6076 53.9239 0)
(-29.4662 55.1232 9.31563e-18)
(-27.2793 56.2375 0)
(-25.0504 57.2652 -4.65781e-18)
(-22.7829 58.2045 -4.31754e-18)
(-20.4802 59.0541 -2.40614e-18)
(-18.146 59.8126 -6.56922e-18)
(-15.7838 60.4789 4.31754e-18)
(-13.3972 61.0519 0)
(-10.99 61.5308 3.45475e-18)
(-8.56583 61.9149 -3.45475e-18)
(-6.12846 62.2034 1.07939e-18)
(-3.68164 62.3961 -1.44591e-18)
(-1.22915 62.4925 2.8146e-19)
(-57.8261 1.13258 8.36218e-19)
(-57.737 3.40195 -2.75257e-18)
(-57.5589 5.66607 0)
(-57.2921 7.92145 -4.33597e-18)
(-56.937 10.1646 6.5442e-18)
(-56.494 12.3921 -1.84141e-25)
(-55.9639 14.6005 -2.20823e-18)
(-55.3476 16.7864 -4.41646e-18)
(-54.6459 18.9464 1.60992e-19)
(-53.8599 21.0771 4.54659e-18)
(-52.9909 23.1754 4.21257e-19)
(-52.0402 25.238 4.41646e-18)
(-51.0092 27.2616 8.51094e-18)
(-49.8996 29.2432 9.09318e-18)
(-48.7131 31.1797 -9.09318e-18)
(-47.4514 33.0681 4.09448e-18)
(-46.1166 34.9056 2.00158e-25)
(-44.7106 36.6892 3.83421e-18)
(-43.2358 38.4162 0)
(-41.6942 40.084 0)
(-40.0884 41.6901 0)
(-38.4207 43.2318 0)
(-36.6938 44.7068 4.99871e-18)
(-34.9104 46.113 8.51093e-18)
(-33.0731 47.448 -1.29274e-17)
(-31.1848 48.7098 9.09318e-18)
(-29.2484 49.8966 -9.09318e-18)
(-27.2669 51.0064 -8.51093e-18)
(-25.2434 52.0376 4.41646e-18)
(-23.1809 52.9885 -9.25417e-18)
(-21.0827 53.8577 -4.54659e-18)
(-18.952 54.6439 4.12533e-18)
(-16.7921 55.3458 -4.41646e-18)
(-14.6063 55.9624 -2.20823e-18)
(-12.398 56.4927 1.01102e-25)
(-10.1705 56.9359 2.28872e-18)
(-7.92737 57.2913 -8.04958e-20)
(-5.67202 57.5584 0)
(-3.40791 57.7367 1.64846e-18)
(-1.13855 57.826 2.67895e-19)
(-52.7991 1.03289 2.71197e-19)
(-52.7179 3.10498 1.54398e-18)
(-52.5553 5.17229 1.05151e-18)
(-52.3117 7.23161 2.35104e-27)
(-51.9875 9.27978 -2.93632e-25)
(-51.5831 11.3136 -1.0619e-17)
(-51.0992 13.3301 4.20603e-18)
(-50.5364 15.3259 0)
(-49.8958 17.2982 0)
(-49.1782 19.2437 4.5471e-18)
(-48.3848 21.1596 -3.93978e-18)
(-47.5167 23.0429 -1.26181e-17)
(-46.5755 24.8906 8.41205e-18)
(-45.5623 26.7 -8.1458e-18)
(-44.479 28.4681 -4.74201e-19)
(-43.327 30.1924 2.07953e-19)
(-42.1083 31.8702 -2.07952e-19)
(-40.8246 33.4988 8.1458e-18)
(-39.478 35.0757 0)
(-38.0705 36.5986 0)
(-36.6043 38.065 0)
(-35.0816 39.4727 0)
(-33.5049 40.8196 -8.1458e-18)
(-31.8765 42.1035 8.41205e-18)
(-30.1989 43.3225 -1.7032e-17)
(-28.4748 44.4747 4.74201e-19)
(-26.7068 45.5583 8.1458e-18)
(-24.8976 46.5717 8.41205e-18)
(-23.05 47.5133 -1.26181e-17)
(-21.1669 48.3816 1.23518e-17)
(-19.2511 49.1753 -4.5471e-18)
(-17.3056 49.8932 4.0729e-18)
(-15.3335 50.5341 0)
(-13.3377 51.0972 4.20602e-18)
(-11.3214 51.5814 -1.99903e-18)
(-9.28757 51.9861 8.74527e-26)
(-7.23944 52.3107 8.063e-26)
(-5.18015 52.5546 1.05151e-18)
(-3.11288 52.7174 -4.92471e-19)
(-1.0408 52.799 7.80309e-19)
(-47.4012 0.92615 0)
(-47.3282 2.7864 -9.94033e-19)
(-47.1824 4.64235 0)
(-46.9637 6.49114 0)
(-46.6727 8.32992 -3.97614e-18)
(-46.3097 10.1559 -1.0461e-19)
(-45.8752 11.9661 3.89793e-18)
(-45.3701 13.758 3.97614e-18)
(-44.795 15.5286 0)
(-44.1508 17.2752 -7.58664e-18)
(-43.4385 18.9953 -7.95227e-18)
(-42.6593 20.686 7.95227e-18)
(-41.8143 22.3449 7.95227e-18)
(-40.9048 23.9693 -1.56418e-19)
(-39.9322 25.5567 -2.09221e-19)
(-38.8981 27.1047 3.65638e-19)
(-37.804 28.611 7.58663e-18)
(-36.6516 30.0731 -7.95227e-18)
(-35.4426 31.4888 -7.95227e-18)
(-34.1791 32.856 7.95227e-18)
(-32.8628 34.1726 -7.95227e-18)
(-31.4959 35.4364 0)
(-30.0804 36.6456 0)
(-28.6185 37.7983 0)
(-27.1124 38.8927 -3.65638e-19)
(-25.5646 39.9272 -1.53825e-17)
(-23.9774 40.9 1.57481e-17)
(-22.3532 41.8099 -7.95227e-18)
(-20.6945 42.6552 -7.95227e-18)
(-19.0039 43.4348 7.95227e-18)
(-17.284 44.1474 7.58663e-18)
(-15.5375 44.7919 0)
(-13.767 45.3674 -3.97613e-18)
(-11.9752 45.8729 3.89792e-18)
(-10.165 46.3077 -7.69124e-18)
(-8.33917 46.671 0)
(-6.50044 46.9625 0)
(-4.65169 47.1815 0)
(-2.79577 47.3277 9.94033e-19)
(-0.935537 47.401 0)
(-41.6227 0.811457 1.32096e-18)
(-41.5587 2.44493 -1.92853e-20)
(-41.4307 4.07464 0)
(-41.2388 5.69806 5.28386e-18)
(-40.9833 7.31269 -7.71441e-20)
(-40.6646 8.91605 0)
(-40.2832 10.5057 0)
(-39.8397 12.0791 -6.87703e-18)
(-39.3348 13.6339 1.40175e-17)
(-38.7692 15.1676 -1.40175e-17)
(-38.1438 16.678 1.38632e-17)
(-37.4596 18.1627 -6.85447e-18)
(-36.7177 19.6193 -1.38632e-17)
(-35.9191 21.0457 1.38632e-17)
(-35.0652 22.4397 -7.00875e-18)
(-34.1572 23.799 1.54288e-19)
(-33.1965 25.1217 1.09164e-19)
(-32.1846 26.4056 1.37541e-17)
(-31.1231 27.6488 -1.41718e-17)
(-30.0137 28.8494 1.4281e-17)
(-28.8579 30.0055 1.37541e-17)
(-27.6576 31.1153 -2.10263e-17)
(-26.4147 32.1771 1.40175e-17)
(-25.1311 33.1894 -1.41267e-17)
(-23.8087 34.1504 1.38632e-17)
(-22.4496 35.0588 -7.00875e-18)
(-21.0559 35.9132 1.54287e-19)
(-19.6297 36.7121 -1.54288e-19)
(-18.1733 37.4545 6.85446e-18)
(-16.6888 38.1391 1.54288e-19)
(-15.1786 38.7649 -1.40175e-17)
(-13.645 39.3309 1.40175e-17)
(-12.0904 39.8363 -7.14048e-18)
(-10.5171 40.2802 0)
(-8.9276 40.6621 0)
(-7.32433 40.9812 -3.50437e-18)
(-5.70977 41.2372 1.7249e-18)
(-4.0864 41.4296 0)
(-2.45673 41.558 -1.7329e-18)
(-0.823278 41.6225 8.76094e-19)
(-35.8328 0.698416 -4.15597e-19)
(-35.7777 2.10467 1.68824e-18)
(-35.6675 3.50767 -1.68824e-18)
(-35.5023 4.90527 -1.66239e-18)
(-35.2823 6.2953 3.37649e-18)
(-35.008 7.67562 3.57137e-20)
(-34.6797 9.04411 6.75298e-18)
(-34.2978 10.3987 -3.25335e-18)
(-33.8632 11.7372 -7.1428e-20)
(-33.3763 13.0576 -1.35059e-17)
(-32.8379 14.3579 6.75297e-18)
(-32.2489 15.636 6.75297e-18)
(-31.6101 16.89 -1.35774e-17)
(-30.9227 18.118 6.75297e-18)
(-30.1875 19.3181 -6.75297e-18)
(-29.4058 20.4883 0)
(-28.5788 21.627 -6.64956e-18)
(-27.7077 22.7323 1.3474e-17)
(-26.7939 23.8026 2.03303e-17)
(-25.8387 24.8362 -2.01555e-17)
(-24.8437 25.8314 -6.85638e-18)
(-23.8104 26.7869 6.68154e-18)
(-22.7404 27.701 -6.8244e-18)
(-21.6354 28.5725 6.64956e-18)
(-20.4969 29.3998 0)
(-19.3269 30.1819 -6.75297e-18)
(-18.1271 30.9174 6.75297e-18)
(-16.8993 31.6052 7.14279e-20)
(-15.6454 32.2443 6.75297e-18)
(-14.3675 32.8337 6.75297e-18)
(-13.0674 33.3724 -1.35059e-17)
(-11.7471 33.8597 1.35774e-17)
(-10.4087 34.2948 -1.02526e-17)
(-9.05428 34.677 6.75297e-18)
(-7.68588 35.0057 -6.78868e-18)
(-6.30564 35.2805 3.37648e-18)
(-4.91567 35.5009 1.66239e-18)
(-3.51812 35.6665 -1.68824e-18)
(-2.11515 35.7771 1.68824e-18)
(-0.708919 35.8326 0)
(-30.6541 0.598732 4.43227e-19)
(-30.607 1.80175 8.80724e-19)
(-30.5126 3.00198 8.9219e-19)
(-30.3713 4.19759 1.76145e-18)
(-30.183 5.38672 1.78438e-18)
(-29.9483 6.56755 -3.49013e-18)
(-29.6674 7.73825 0)
(-29.3407 8.89702 1.11401e-19)
(-28.9688 10.0421 -1.114e-19)
(-28.5522 11.1716 -1.41374e-17)
(-28.0916 12.284 6.99994e-18)
(-27.5877 13.3774 -7.04579e-18)
(-27.0412 14.4501 6.98025e-18)
(-26.453 15.5006 7.04579e-18)
(-25.8241 16.5272 -2.11832e-17)
(-25.1553 17.5283 1.41374e-17)
(-24.4478 18.5024 0)
(-23.7025 19.448 6.55433e-20)
(-22.9207 20.3635 -1.4026e-17)
(-22.1036 21.2477 0)
(-21.2524 22.0991 0)
(-20.3684 22.9164 -6.55433e-20)
(-19.453 23.6984 1.4026e-17)
(-18.5076 24.4439 0)
(-17.5337 25.1516 -4.58574e-20)
(-16.5327 25.8206 -6.99993e-18)
(-15.5062 26.4498 7.04579e-18)
(-14.4559 27.0381 -6.98025e-18)
(-13.3832 27.5848 -7.04579e-18)
(-12.2899 28.089 2.11832e-17)
(-11.1777 28.5498 4.58572e-20)
(-10.0482 28.9667 1.11401e-19)
(-8.90322 29.3388 -1.11401e-19)
(-7.74452 29.6657 0)
(-6.57388 29.9469 3.49012e-18)
(-5.3931 30.1819 -5.30727e-18)
(-4.20401 30.3704 -1.78438e-18)
(-3.00843 30.512 -2.65363e-18)
(-1.80822 30.6066 8.80723e-19)
(-0.605213 30.654 -4.43228e-19)
(-26.2602 0.513631 -4.52101e-19)
(-26.2198 1.54421 -9.09441e-19)
(-26.139 2.5724 2.74618e-18)
(-26.0178 3.59663 -9.51338e-27)
(-25.8565 4.61531 -7.25459e-18)
(-25.6554 5.62687 1.81888e-18)
(-25.4147 6.62976 0)
(-25.1349 7.62243 -7.23364e-18)
(-24.8162 8.60334 -7.14358e-20)
(-24.4593 9.57098 7.23364e-18)
(-24.0647 10.5239 1.81765e-17)
(-23.633 11.4605 -3.60821e-18)
(-23.1648 12.3795 7.30508e-18)
(-22.661 13.2794 4.23295e-25)
(-22.1221 14.1589 2.18142e-17)
(-21.5492 15.0165 -2.91193e-17)
(-20.9431 15.8509 7.27552e-18)
(-20.3046 16.6609 0)
(-19.6348 17.4452 -1.46101e-17)
(-18.9348 18.2026 0)
(-18.2056 18.932 0)
(-17.4483 19.6321 1.46101e-17)
(-16.6641 20.302 0)
(-15.8542 20.9406 7.27552e-18)
(-15.0198 21.5469 1.45683e-17)
(-14.1623 22.1199 -7.26319e-18)
(-13.283 22.6589 -2.22787e-25)
(-12.3832 23.1629 -7.30507e-18)
(-11.4642 23.6312 -1.82184e-17)
(-10.5276 24.0631 -1.09009e-17)
(-9.57482 24.4578 -7.23363e-18)
(-8.60723 24.8149 7.14361e-20)
(-7.62637 25.1337 7.23363e-18)
(-6.63374 25.4137 0)
(-5.63089 25.6545 5.47142e-18)
(-4.61936 25.8558 -2.09435e-20)
(-3.6007 26.0173 3.61682e-18)
(-2.57649 26.1386 2.71046e-18)
(-1.54831 26.2196 -9.0944e-19)
(-0.517743 26.2601 4.52102e-19)
(-22.5061 0.440633 -4.67855e-19)
(-22.4715 1.32388 9.33326e-19)
(-22.4022 2.20508 -9.21828e-19)
(-22.2983 3.08289 0)
(-22.1601 3.95594 0)
(-21.9877 4.82289 5.6095e-18)
(-21.7814 5.6824 -1.86665e-18)
(-21.5415 6.53315 -3.7333e-18)
(-21.2684 7.37383 1.1173e-17)
(-20.9625 8.20314 3.75239e-18)
(-20.6243 9.0198 -3.7064e-18)
(-20.2543 9.82255 -7.4397e-18)
(-19.853 10.6102 -1.49254e-17)
(-19.4212 11.3814 -1.49714e-17)
(-18.9594 12.1351 -7.4397e-18)
(-18.4683 12.8701 1.48794e-17)
(-17.9488 13.5852 -1.49714e-17)
(-17.4016 14.2794 0)
(-16.8276 14.9516 1.48794e-17)
(-16.2276 15.6007 0)
(-15.6026 16.2258 0)
(-14.9536 16.8258 -1.48794e-17)
(-14.2815 17.3999 0)
(-13.5874 17.9472 1.49714e-17)
(-12.8723 18.4668 9.19822e-20)
(-12.1374 18.9579 7.4397e-18)
(-11.3837 19.4198 1.49714e-17)
(-10.6125 19.8518 7.4397e-18)
(-9.82496 20.2531 7.4397e-18)
(-9.02225 20.6232 1.1173e-17)
(-8.20563 20.9616 -1.1219e-17)
(-7.37636 21.2675 -3.70639e-18)
(-6.53571 21.5407 -3.7333e-18)
(-5.68498 21.7807 -1.86665e-18)
(-4.82549 21.9871 -5.59604e-18)
(-3.95856 22.1596 0)
(-3.08553 22.298 0)
(-2.20774 22.4019 -9.44823e-19)
(-1.32654 22.4713 9.33325e-19)
(-0.443299 22.5061 4.67855e-19)
(-19.2805 0.377742 4.74294e-19)
(-19.2508 1.1344 0)
(-19.1915 1.88931 -1.89718e-18)
(-19.1025 2.64131 -9.50751e-19)
(-18.9841 3.38923 9.50751e-19)
(-18.8364 4.13193 -3.79436e-18)
(-18.6596 4.86825 7.61829e-18)
(-18.4541 5.59707 -7.61829e-18)
(-18.2201 6.31726 0)
(-17.9581 7.02771 -3.77344e-18)
(-17.6683 7.72732 3.803e-18)
(-17.3513 8.41502 -1.14213e-17)
(-17.0076 9.08974 1.13917e-17)
(-16.6376 9.75045 -3.86212e-18)
(-16.242 10.3961 3.803e-18)
(-15.8213 11.0258 0)
(-15.3762 11.6384 1.51774e-17)
(-14.9075 12.2331 1.52366e-17)
(-14.4157 12.8089 -1.52366e-17)
(-13.9017 13.365 0)
(-13.3663 13.9005 0)
(-12.8103 14.4145 1.52366e-17)
(-12.2345 14.9064 0)
(-11.6398 15.3752 -1.51774e-17)
(-11.0272 15.8203 -1.51774e-17)
(-10.3976 16.241 3.803e-18)
(-9.75198 16.6367 -3.74388e-18)
(-9.0913 17.0068 3.803e-18)
(-8.41661 17.3506 -1.14213e-17)
(-7.72894 17.6676 3.803e-18)
(-7.02936 17.9574 -3.83256e-18)
(-6.31893 18.2196 0)
(-5.59876 18.4536 7.61828e-18)
(-4.86996 18.6592 -7.61828e-18)