/*--------------------------------*- C++ -*----------------------------------*\
| =========                 |                                                 |
| \\      /  F ield         | OpenFOAM: The Open Source CFD Toolbox           |
|  \\    /   O peration     | Version:  2412                                  |
|   \\  /    A nd           | Website:  www.openfoam.com                      |
|    \\/     M anipulation  |                                                 |
\*---------------------------------------------------------------------------*/
FoamFile
{
    version     2.0;
    format      ascii;
    arch        "LSB;label=32;scalar=64";
    class       volVectorField;
    location    "0.9";
    object      cellDisplacement;
}
// * * * * * * * * * * * * * * * * * * * * * * * * * * * * * * * * * * * * * //

dimensions      [0 1 0 0 0 0 0];

internalField   nonuniform List<vector> 
256
(
(0.00218399 -0.00328853 0)
(0.0042666 -0.00602583 0)
(0.00648637 -0.00809063 0)
(0.00897456 -0.00941741 0)
(0.0117789 -0.0099172 0)
(0.0148013 -0.00948164 0)
(0.0177832 -0.00803383 0)
(0.0202774 -0.00560922 0)
(0.00985757 -0.0144416 0)
(0.0159335 -0.0214514 0)
(0.0224899 -0.0264279 0)
(0.0297982 -0.0292392 0)
(0.0378456 -0.0296538 0)
(0.0463094 -0.0274729 0)
(0.0543848 -0.022569 0)
(0.0610347 -0.0152048 0)
(0.0204887 -0.0294012 0)
(0.0302813 -0.0393113 0)
(0.0409172 -0.0458974 0)
(0.0527176 -0.0490635 0)
(0.0655456 -0.0484813 0)
(0.078709 -0.0438554 0)
(0.0909303 -0.0351373 0)
(0.100711 -0.0229248 0)
(0.0339858 -0.04772 0)
(0.0472296 -0.0591506 0)
(0.0617182 -0.0661631 0)
(0.077683 -0.0686594 0)
(0.0947272 -0.0662144 0)
(0.111837 -0.0585548 0)
(0.127319 -0.0457883 0)
(0.139253 -0.0288335 0)
(0.0502395 -0.0688356 0)
(0.066746 -0.0805323 0)
(0.0848285 -0.0868407 0)
(0.104548 -0.0877009 0)
(0.125261 -0.0826549 0)
(0.145546 -0.0714652 0)
(0.163485 -0.0545078 0)
(0.176635 -0.0329759 0)
(0.0692269 -0.0922106 0)
(0.0887978 -0.102969 0)
(0.110197 -0.107523 0)
(0.133266 -0.105887 0)
(0.157006 -0.0975725 0)
(0.179743 -0.0824796 0)
(0.199211 -0.0612177 0)
(0.212934 -0.0353254 0)
(0.0909309 -0.117209 0)
(0.113433 -0.125972 0)
(0.137849 -0.127822 0)
(0.163769 -0.122889 0)
(0.189913 -0.110727 0)
(0.214315 -0.091422 0)
(0.234515 -0.0658252 0)
(0.248151 -0.0358143 0)
(0.115455 -0.143202 0)
(0.140653 -0.148911 0)
(0.167778 -0.14722 0)
(0.196046 -0.138295 0)
(0.223863 -0.121796 0)
(0.249107 -0.0980392 0)
(0.269319 -0.0681743 0)
(0.282393 -0.0342725 0)
(0.142912 -0.169446 0)
(0.170603 -0.171149 0)
(0.199994 -0.165101 0)
(0.229965 -0.151552 0)
(0.25873 -0.130333 0)
(0.284066 -0.102016 0)
(0.303673 -0.0679911 0)
(0.315696 -0.0304744 0)
(0.173608 -0.195121 0)
(0.203433 -0.191913 0)
(0.234578 -0.18076 0)
(0.265581 -0.162045 0)
(0.294491 -0.135818 0)
(0.319184 -0.102922 0)
(0.337544 -0.0649208 0)
(0.348063 -0.0240588 0)
(0.207875 -0.219237 0)
(0.239461 -0.210234 0)
(0.271726 -0.193296 0)
(0.302956 -0.168969 0)
(0.331185 -0.137571 0)
(0.354392 -0.100147 0)
(0.370845 -0.0584263 0)
(0.379306 -0.0146011 0)
(0.246347 -0.240468 0)
(0.279107 -0.224826 0)
(0.311683 -0.201446 0)
(0.34216 -0.171162 0)
(0.36868 -0.134567 0)
(0.389493 -0.092881 0)
(0.403298 -0.0478191 0)
(0.409307 -0.00140784 0)
(0.289778 -0.256836 0)
(0.322874 -0.233683 0)
(0.354607 -0.203399 0)
(0.383055 -0.167024 0)
(0.406641 -0.12548 0)
(0.424082 -0.0799485 0)
(0.434521 -0.0320669 0)
(0.437564 0.0163824 0)
(0.339017 -0.265246 0)
(0.371063 -0.23379 0)
(0.400252 -0.196352 0)
(0.424962 -0.154244 0)
(0.444175 -0.108384 0)
(0.457174 -0.0599191 0)
(0.463512 -0.0101114 0)
(0.463121 0.0396638 0)
(0.394246 -0.260675 0)
(0.422833 -0.220709 0)
(0.446848 -0.176905 0)
(0.465637 -0.130273 0)
(0.47888 -0.0815083 0)
(0.486353 -0.0314122 0)
(0.487971 0.0191291 0)
(0.483794 0.069227 0)
(0.4475 -0.233467 0)
(0.468229 -0.18848 0)
(0.484449 -0.141678 0)
(0.496003 -0.0935114 0)
(0.50278 -0.0444443 0)
(0.504716 0.00505078 0)
(0.50179 0.0544972 0)
(0.494032 0.103419 0)
(-0.00251811 -0.0218804 0)
(0.000863188 -0.0221257 0)
(0.0038537 -0.0208222 0)
(0.00587813 -0.0181966 0)
(0.00662107 -0.01471 0)
(0.00609154 -0.0108558 0)
(0.00452211 -0.00697584 0)
(0.00228092 -0.00325529 0)
(-0.00626141 -0.0649577 0)
(0.00320027 -0.0653215 0)
(0.011509 -0.0618039 0)
(0.017323 -0.0549479 0)
(0.019889 -0.0457937 0)
(0.0191936 -0.0355642 0)
(0.0156474 -0.0250065 0)
(0.00998276 -0.0145766 0)
(-0.0086155 -0.105998 0)
(0.00615427 -0.106117 0)
(0.0190476 -0.100663 0)
(0.0282783 -0.090495 0)
(0.0328777 -0.0770797 0)
(0.0327127 -0.0618783 0)
(0.0282886 -0.0460323 0)
(0.0204239 -0.0300663 0)
(-0.00963342 -0.145232 0)
(0.00979172 -0.144786 0)
(0.0266921 -0.137646 0)
(0.0390772 -0.124972 0)
(0.0458305 -0.108352 0)
(0.0467259 -0.0893858 0)
(0.0423219 -0.0695084 0)
(0.0333851 -0.0491996 0)
(-0.00932044 -0.182746 0)
(0.0142325 -0.181599 0)
(0.0347075 -0.173056 0)
(0.050026 -0.158454 0)
(0.0590023 -0.139451 0)
(0.0613962 -0.117763 0)
(0.0577236 -0.0949202 0)
(0.0487077 -0.0713865 0)
(-0.00759833 -0.218757 0)
(0.0196318 -0.216742 0)
(0.0433304 -0.207036 0)
(0.0613909 -0.190918 0)
(0.0726628 -0.170217 0)
(0.0769151 -0.146688 0)
(0.0745498 -0.121783 0)
(0.0663254 -0.0960321 0)
(-0.0043713 -0.253337 0)
(0.0261904 -0.25043 0)
(0.0528139 -0.239639 0)
(0.0734777 -0.222385 0)
(0.0871199 -0.200539 0)
(0.093488 -0.17581 0)
(0.0929256 -0.14961 0)
(0.0862432 -0.122505 0)
(0.00058922 -0.286701 0)
(0.0341364 -0.282757 0)
(0.0634326 -0.270956 0)
(0.0866157 -0.252849 0)
(0.102686 -0.23025 0)
(0.11141 -0.204841 0)
(0.113093 -0.177963 0)
(0.10858 -0.15017 0)
(0.00749282 -0.318821 0)
(0.0437441 -0.313729 0)
(0.0755323 -0.30101 0)
(0.101167 -0.282239 0)
(0.119747 -0.259182 0)
(0.131045 -0.23345 0)
(0.135351 -0.206348 0)
(0.133521 -0.178351 0)
(0.016712 -0.349694 0)
(0.0553907 -0.343347 0)
(0.0895186 -0.329752 0)
(0.117578 -0.310444 0)
(0.138741 -0.287091 0)
(0.152816 -0.261245 0)
(0.160073 -0.234187 0)
(0.161441 -0.206316 0)
(0.0286616 -0.379209 0)
(0.0695659 -0.371533 0)
(0.105919 -0.357058 0)
(0.136378 -0.337236 0)
(0.160223 -0.313638 0)
(0.177276 -0.28773 0)
(0.187811 -0.260777 0)
(0.192797 -0.233156 0)
(0.0440369 -0.407243 0)
(0.0869037 -0.398064 0)
(0.125344 -0.382613 0)
(0.158213 -0.36223 0)
(0.184873 -0.338339 0)
(0.205165 -0.312253 0)
(0.21927 -0.285209 0)
(0.228245 -0.257662 0)
(0.0635398 -0.433219 0)
(0.108071 -0.422337 0)
(0.14848 -0.405755 0)
(0.183801 -0.384633 0)
(0.213475 -0.360243 0)
(0.23728 -0.333755 0)
(0.255366 -0.306216 0)
(0.26875 -0.278134 0)
(0.0880468 -0.456183 0)
(0.133912 -0.443379 0)
(0.17615 -0.42542 0)
(0.213981 -0.403224 0)
(0.246873 -0.377836 0)
(0.274558 -0.350285 0)
(0.297117 -0.321503 0)
(0.315378 -0.291891 0)
(0.117995 -0.474029 0)
(0.164635 -0.459093 0)
(0.208396 -0.439461 0)
(0.248662 -0.415779 0)
(0.284966 -0.388736 0)
(0.317022 -0.359094 0)
(0.344771 -0.327548 0)
(0.36864 -0.294427 0)
(0.151345 -0.481517 0)
(0.197813 -0.464364 0)
(0.242376 -0.442739 0)
(0.284605 -0.41685 0)
(0.324093 -0.386946 0)
(0.360459 -0.353316 0)
(0.393355 -0.316284 0)
(0.422462 -0.276205 0)
)
;

boundaryField
{
    walls
    {
        type            cellMotion;
        value           uniform (0 0 0);
    }
    cylinder
    {
        type            cellMotion;
        value           nonuniform List<vector> 
16
(
(0.4475 -0.233467 0)
(0.468229 -0.18848 0)
(0.484449 -0.141678 0)
(0.496003 -0.0935114 0)
(0.50278 -0.0444443 0)
(0.504716 0.00505078 0)
(0.50179 0.0544972 0)
(0.494032 0.103419 0)
(0.151345 -0.481517 0)
(0.197813 -0.464364 0)
(0.242376 -0.442739 0)
(0.284605 -0.41685 0)
(0.324093 -0.386946 0)
(0.360459 -0.353316 0)
(0.393355 -0.316284 0)
(0.422462 -0.276205 0)
)
;
    }
    outlet
    {
        type            cellMotion;
        value           nonuniform List<vector> 0();
    }
    inlet
    {
        type            cellMotion;
        value           uniform (0 0 0);
    }
    frontAndBack
    {
        type            empty;
    }
    procBoundary0to1
    {
        type            processor;
        value           nonuniform List<vector> 
16
(
(0.0219488 -0.00248835 0)
(0.0650906 -0.0061702 0)
(0.106229 -0.0084667 0)
(0.145492 -0.00943587 0)
(0.183072 -0.00907297 0)
(0.219081 -0.00732254 0)
(0.253694 -0.0040602 0)
(0.287026 0.000897768 0)
(0.319146 0.00781375 0)
(0.349961 0.016993 0)
(0.37944 0.0289244 0)
(0.40741 0.0442262 0)
(0.433332 0.0636739 0)
(0.456242 0.0880946 0)
(0.474049 0.118002 0)
(0.481517 0.151345 0)
)
;
    }
    procBoundary0to2
    {
        type            processor;
        value           nonuniform List<vector> 
16
(
(-0.00564355 -0.0202431 0)
(-0.0152998 -0.0608779 0)
(-0.0230795 -0.100495 0)
(-0.0290445 -0.138941 0)
(-0.033231 -0.176297 0)
(-0.0356277 -0.212536 0)
(-0.0361359 -0.247763 0)
(-0.0346231 -0.281983 0)
(-0.03081 -0.315329 0)
(-0.024394 -0.347715 0)
(-0.0148825 -0.379027 0)
(-0.00164967 -0.409085 0)
(0.0162296 -0.437417 0)
(0.0395815 -0.463041 0)
(0.069208 -0.483771 0)
(0.103419 -0.494032 0)
)
;
    }
}


// ************************************************************************* //
