/*--------------------------------*- C++ -*----------------------------------*\
| =========                 |                                                 |
| \\      /  F ield         | OpenFOAM: The Open Source CFD Toolbox           |
|  \\    /   O peration     | Version:  2412                                  |
|   \\  /    A nd           | Website:  www.openfoam.com                      |
|    \\/     M anipulation  |                                                 |
\*---------------------------------------------------------------------------*/
FoamFile
{
    version     2.0;
    format      ascii;
    arch        "LSB;label=32;scalar=64";
    class       surfaceScalarField;
    location    "0.9";
    object      meshPhi;
}
// * * * * * * * * * * * * * * * * * * * * * * * * * * * * * * * * * * * * * //

dimensions      [0 3 -1 0 0 0 0];

internalField   nonuniform List<scalar> 
480
(
0.000331282
-0.00138419
-0.000330448
0.000407139
-0.00173815
0.000477042
-0.00216439
0.000534185
-0.00244053
0.00064006
-0.00259662
0.000756666
-0.00265737
0.000820203
-0.00243611
-0.0019729
0.00111058
-0.00307673
-0.00111037
0.00137328
-0.00376325
0.00155323
-0.00452561
0.00168564
-0.00488807
0.00196283
-0.00500442
0.00227297
-0.00494928
0.00247356
-0.00446665
-0.00362032
0.00215155
-0.0050483
-0.00215434
0.0025712
-0.00592883
0.00282961
-0.00683811
0.00301252
-0.00724828
0.0033743
-0.00727069
0.00379755
-0.00698502
0.00412141
-0.0061974
-0.00498692
0.00346315
-0.00712903
-0.00348586
0.0039494
-0.00808608
0.00428068
-0.00902936
0.00451998
-0.00941885
0.00489544
-0.00926436
0.00535811
-0.00867076
0.0057566
-0.00756065
-0.00602138
0.00501136
-0.00913532
-0.00505644
0.00553744
-0.0101682
0.00591929
-0.0110663
0.0061983
-0.01135
0.00654681
-0.0110015
0.00698754
-0.0101129
0.00738782
-0.00868027
-0.006801
0.00677107
-0.0109434
-0.00683397
0.00736025
-0.012003
0.00776584
-0.012842
0.00804243
-0.0129744
0.00833531
-0.0123942
0.00869443
-0.011211
0.0090194
-0.00948057
-0.00735309
0.00877787
-0.0125212
-0.00886611
0.00941447
-0.0135419
0.00980827
-0.0142329
0.010044
-0.014182
0.0102547
-0.0134092
0.0104777
-0.0119996
0.010663
-0.0100255
-0.00770288
0.01109
-0.0138443
-0.0112366
0.0116889
-0.0146876
0.0120225
-0.0151441
0.0121782
-0.014907
0.0122645
-0.0139647
0.0123137
-0.0123882
0.0123319
-0.0102594
-0.00780812
0.0137073
-0.014674
-0.0139765
0.0141706
-0.0153037
0.0143805
-0.0154959
0.0143956
-0.0150631
0.0143141
-0.0139749
0.014182
-0.0123097
0.0140404
-0.0101429
-0.00764397
0.0166099
-0.0149508
-0.0171032
0.0168247
-0.0153011
0.0168596
-0.0152207
0.0166812
-0.0146236
0.0163934
-0.0134534
0.0160815
-0.0117847
0.0157943
-0.00969287
-0.00727492
0.0197692
-0.0145388
-0.0205415
0.0196404
-0.014651
0.0194158
-0.0142641
0.018999
-0.0134953
0.0184832
-0.0123011
0.0179832
-0.0107184
0.0175578
-0.00881692
-0.00666951
0.0231314
-0.0131832
-0.0241894
0.022589
-0.0130826
0.021986
-0.0124211
0.021295
-0.0115079
0.0205601
-0.0103741
0.019871
-0.00900677
0.0193225
-0.0074343
-0.00569075
0.0266358
-0.0108267
-0.0280683
0.0256011
-0.0104993
0.0245431
-0.00965789
0.0235216
-0.0087091
0.022553
-0.00771723
0.0217047
-0.00665683
0.0210702
-0.00550288
-0.00422227
0.0303154
-0.00756562
-0.0322147
0.0286552
-0.00713015
0.0270585
-0.00624725
0.0256111
-0.00539747
0.024364
-0.00461041
0.0233731
-0.00386002
0.0226669
-0.00307852
-0.00224099
0.0337034
-0.00307739
-0.0361506
0.0312915
-0.00274259
0.0291081
-0.00223517
0.0272252
-0.00176848
0.0257
-0.00135017
0.0245629
-0.000951762
0.0238284
-0.000552341
-0.000148669
0.0316664
-0.0346509
0.028892
0.0265172
0.0245904
0.0231318
0.0221542
0.0216634
0.00107498
-0.00151754
0.00119591
-0.000702165
0.00120837
2.91733e-05
0.00112076
0.000560994
0.000948266
0.000815169
0.00072502
0.000817695
0.000480424
0.000650961
0.000427554
0.00315513
-0.00275351
0.00345285
-0.00131129
0.00346244
-5.0761e-05
0.00323473
0.000855216
0.00279557
0.00132677
0.00221725
0.00140134
0.00155157
0.00117859
0.000783608
0.00510625
-0.00372378
0.0054887
-0.00183677
0.00545366
-0.000233781
0.00514582
0.00093676
0.00455244
0.00158796
0.00376861
0.00176428
0.00282306
0.0015683
0.00109997
0.00696545
-0.00441157
0.00738675
-0.00223976
0.00727334
-0.000419208
0.00693067
0.000929873
0.00626358
0.00172396
0.00538322
0.00199485
0.00426361
0.00183601
0.00134494
0.00864599
-0.00483948
0.00909481
-0.00253071
0.00898544
-0.000627372
0.00866406
0.000852801
0.00801017
0.00176995
0.00709971
0.00212234
0.00586019
0.00200634
0.00152074
0.0100339
-0.00508857
0.0104856
-0.00267194
0.010597
-0.00072072
0.0103696
0.000764306
0.00981409
0.00172034
0.0089251
0.00214012
0.00761679
0.0020869
0.00164053
0.0113751
-0.00511859
0.0118035
-0.00262316
0.0121612
-0.000689877
0.012078
0.00069674
0.0116523
0.00160262
0.0108197
0.00205311
0.00954128
0.0020929
0.00176766
0.0129199
-0.00493639
0.0133492
-0.00246861
0.0137921
-0.000627594
0.0138304
0.000613277
0.0134927
0.00142835
0.0127663
0.00190176
0.0116733
0.00206627
0.00189202
0.0145294
-0.00452238
0.0150194
-0.00211868
0.0155406
-0.000433605
0.0156371
0.000610687
0.0153461
0.0013036
0.0148165
0.00179402
0.0140577
0.00208985
0.00208958
0.0160658
-0.00402237
0.0165674
-0.00171528
0.0172062
-0.000241202
0.0174159
0.00054321
0.0172545
0.00116401
0.0170319
0.00175753
0.0167414
0.00219007
0.00231736
0.0175523
-0.00353765
0.0179057
-0.00148248
0.0185068
-0.000148129
0.0189706
0.000616022
0.0192092
0.0012731
0.0194575
0.00187685
0.0197124
0.00228777
0.00241656
0.0190962
-0.00283993
0.0193142
-0.00116946
0.0198101
8.22929e-05
0.0205443
0.000961842
0.0213344
0.00160185
0.0221364
0.00203489
0.0229129
0.00233561
0.00247189
0.0207201
-0.00180877
0.0210118
-0.000546186
0.0216134
0.000494149
0.0225923
0.00125779
0.023829
0.00173536
0.025137
0.00202561
0.0264005
0.00226493
0.00241279
0.0223509
-0.000632123
0.0228404
0.000177194
0.0237063
0.000852652
0.0249663
0.00135092
0.0265724
0.00165578
0.0283725
0.00184702
0.0301615
0.0020432
0.00220675
0.0237448
0.000468917
0.0244327
0.000840056
0.0255703
0.00115381
0.0271235
0.00140047
0.0290713
0.00158837
0.0313229
0.00172313
0.0336737
0.00186327
0.0019884
0.0221275
0.0230377
0.0243493
0.0260039
0.0279524
0.0301206
0.0323907
)
;

boundaryField
{
    walls
    {
        type            calculated;
        value           uniform 0;
    }
    cylinder
    {
        type            calculated;
        value           nonuniform List<scalar> 
16
(
5.83515e-12
-1.15331e-11
-7.44862e-12
1.02774e-11
-3.65136e-12
2.00446e-12
6.04672e-12
-4.92786e-12
4.9233e-12
-6.05114e-12
-2.0079e-12
3.64855e-12
-1.02809e-11
7.44463e-12
1.15296e-11
-5.83909e-12
)
;
    }
    outlet
    {
        type            calculated;
        value           nonuniform List<scalar> 0();
    }
    inlet
    {
        type            calculated;
        value           uniform 0;
    }
    frontAndBack
    {
        type            empty;
    }
    procBoundary0to1
    {
        type            processor;
        value           nonuniform List<scalar> 
16
(
0.000933663
0.00276799
0.00451867
0.00618251
0.00776502
0.00929065
0.0108137
0.0123724
0.0139648
0.0155864
0.0172337
0.0189253
0.0206519
0.0222883
0.0235366
0.0216529
)
;
    }
    procBoundary0to2
    {
        type            processor;
        value           nonuniform List<scalar> 
16
(
-0.000922497
-0.00275979
-0.00454714
-0.0062676
-0.00791317
-0.00949385
-0.0110596
-0.0126421
-0.014243
-0.0158595
-0.0174678
-0.0190705
-0.0206729
-0.0222283
-0.0235035
-0.0216515
)
;
    }
}


// ************************************************************************* //
