/*--------------------------------*- C++ -*----------------------------------*\
| =========                 |                                                 |
| \\      /  F ield         | OpenFOAM: The Open Source CFD Toolbox           |
|  \\    /   O peration     | Version:  2412                                  |
|   \\  /    A nd           | Website:  www.openfoam.com                      |
|    \\/     M anipulation  |                                                 |
\*---------------------------------------------------------------------------*/
FoamFile
{
    version     2.0;
    format      ascii;
    arch        "LSB;label=32;scalar=64";
    class       pointVectorField;
    location    "0.9";
    object      pointDisplacement;
}
// * * * * * * * * * * * * * * * * * * * * * * * * * * * * * * * * * * * * * //

dimensions      [0 1 0 0 0 0 0];

internalField   nonuniform List<vector> 
578
(
(0 0 0)
(0 0 0)
(0 0 0)
(0 0 0)
(0 0 0)
(0 0 0)
(0 0 0)
(0 0 0)
(0 0 0)
(0.00592486 -0.00866918 0)
(0.00803475 -0.0112786 0)
(0.0122728 -0.0154936 0)
(0.016919 -0.0183023 0)
(0.0220849 -0.0195765 0)
(0.0276756 -0.0191595 0)
(0.0333226 -0.0169233 0)
(0.0383889 -0.0128892 0)
(0.0421272 -0.00739711 0)
(0.0149928 -0.0218402 0)
(0.0191217 -0.026146 0)
(0.0273907 -0.03328 0)
(0.0364678 -0.037674 0)
(0.0464672 -0.0391339 0)
(0.0570999 -0.0373964 0)
(0.0675922 -0.0322924 0)
(0.0767891 -0.0239908 0)
(0.0833078 -0.0132154 0)
(0.0268402 -0.0387739 0)
(0.0329825 -0.0439047 0)
(0.0450265 -0.0526488 0)
(0.0582503 -0.0574695 0)
(0.0726639 -0.0581333 0)
(0.0877078 -0.0543086 0)
(0.102214 -0.0458663 0)
(0.114583 -0.0331986 0)
(0.122964 -0.0174328 0)
(0.0413211 -0.0589389 0)
(0.0495387 -0.0640791 0)
(0.0651244 -0.073198 0)
(0.0821901 -0.0773701 0)
(0.100555 -0.0763391 0)
(0.119352 -0.069755 0)
(0.137067 -0.0576087 0)
(0.151707 -0.0405486 0)
(0.161156 -0.0200908 0)
(0.058344 -0.0817616 0)
(0.0687424 -0.086165 0)
(0.0876395 -0.0944989 0)
(0.108209 -0.0970211 0)
(0.130026 -0.0934875 0)
(0.151904 -0.083575 0)
(0.172023 -0.0674437 0)
(0.188103 -0.0460229 0)
(0.197972 -0.0211793 0)
(0.0778831 -0.106641 0)
(0.0905873 -0.109625 0)
(0.11257 -0.116109 0)
(0.136275 -0.116066 0)
(0.161 -0.109303 0)
(0.185266 -0.0955801 0)
(0.206978 -0.0752575 0)
(0.223741 -0.0495557 0)
(0.233505 -0.0206304 0)
(0.0999895 -0.132942 0)
(0.115109 -0.133863 0)
(0.139932 -0.137521 0)
(0.16637 -0.134094 0)
(0.193416 -0.123461 0)
(0.219327 -0.105522 0)
(0.24185 -0.0808809 0)
(0.258634 -0.0510258 0)
(0.267854 -0.0183073 0)
(0.124794 -0.159994 0)
(0.142398 -0.15822 0)
(0.169765 -0.158137 0)
(0.198461 -0.15058 0)
(0.227175 -0.135525 0)
(0.253975 -0.113067 0)
(0.27658 -0.0840647 0)
(0.292809 -0.0502265 0)
(0.301101 -0.0139997 0)
(0.15254 -0.18705 0)
(0.172634 -0.181953 0)
(0.202166 -0.177273 0)
(0.232552 -0.164901 0)
(0.262223 -0.144964 0)
(0.289156 -0.117788 0)
(0.311157 -0.0844654 0)
(0.326282 -0.0468542 0)
(0.333249 -0.00741875 0)
(0.183597 -0.213247 0)
(0.206092 -0.204173 0)
(0.237319 -0.194091 0)
(0.268739 -0.1763 0)
(0.298591 -0.151122 0)
(0.324855 -0.119122 0)
(0.345533 -0.0815995 0)
(0.358976 -0.040489 0)
(0.364222 0.00183005 0)
(0.218485 -0.237476 0)
(0.2432 -0.223736 0)
(0.275521 -0.207487 0)
(0.307169 -0.183744 0)
(0.336289 -0.153079 0)
(0.360983 -0.11629 0)
(0.379548 -0.0748058 0)
(0.390723 -0.0305456 0)
(0.393892 0.0143038 0)
(0.257958 -0.258184 0)
(0.284536 -0.238994 0)
(0.317105 -0.215867 0)
(0.347923 -0.185772 0)
(0.375185 -0.149557 0)
(0.397272 -0.108205 0)
(0.412889 -0.0631573 0)
(0.421203 -0.0162039 0)
(0.421925 0.0307399 0)
(0.302932 -0.273005 0)
(0.330703 -0.247422 0)
(0.36225 -0.21682 0)
(0.390778 -0.18025 0)
(0.414766 -0.138763 0)
(0.433067 -0.0934027 0)
(0.44486 -0.045478 0)
(0.449706 0.00349809 0)
(0.447583 0.0519785 0)
(0.354081 -0.278103 0)
(0.381839 -0.245114 0)
(0.410326 -0.206918 0)
(0.4345 -0.164404 0)
(0.453477 -0.118552 0)
(0.466695 -0.0702522 0)
(0.473787 -0.0205278 0)
(0.474621 0.0295199 0)
(0.469315 0.0787794 0)
(0.408202 -0.266219 0)
(0.433366 -0.225728 0)
(0.455732 -0.181817 0)
(0.473343 -0.135465 0)
(0.485903 -0.0873135 0)
(0.493234 -0.0379696 0)
(0.49524 0.0119102 0)
(0.491915 0.0616461 0)
(0.483357 0.110561 0)
(0.436031 -0.255451 0)
(0.45897 -0.211483 0)
(0.477489 -0.165477 0)
(0.491409 -0.117878 0)
(0.500597 -0.0691443 0)
(0.504964 -0.0197443 0)
(0.504468 0.0298459 0)
(0.499113 0.0791486 0)
(0.488952 0.127689 0)
(0 0 0)
(0 0 0)
(0 0 0)
(0 0 0)
(0 0 0)
(0 0 0)
(0 0 0)
(0 0 0)
(0 0 0)
(0.00592486 -0.00866918 0)
(0.00803475 -0.0112786 0)
(0.0122728 -0.0154936 0)
(0.016919 -0.0183023 0)
(0.0220849 -0.0195765 0)
(0.0276756 -0.0191595 0)
(0.0333226 -0.0169233 0)
(0.0383889 -0.0128892 0)
(0.0421272 -0.00739711 0)
(0.0149928 -0.0218402 0)
(0.0191217 -0.026146 0)
(0.0273907 -0.03328 0)
(0.0364678 -0.037674 0)
(0.0464672 -0.0391339 0)
(0.0570999 -0.0373964 0)
(0.0675922 -0.0322924 0)
(0.0767891 -0.0239908 0)
(0.0833078 -0.0132154 0)
(0.0268402 -0.0387739 0)
(0.0329825 -0.0439047 0)
(0.0450265 -0.0526488 0)
(0.0582503 -0.0574695 0)
(0.0726639 -0.0581333 0)
(0.0877078 -0.0543086 0)
(0.102214 -0.0458663 0)
(0.114583 -0.0331986 0)
(0.122964 -0.0174328 0)
(0.0413211 -0.0589389 0)
(0.0495387 -0.0640791 0)
(0.0651244 -0.073198 0)
(0.0821901 -0.0773701 0)
(0.100555 -0.0763391 0)
(0.119352 -0.069755 0)
(0.137067 -0.0576087 0)
(0.151707 -0.0405486 0)
(0.161156 -0.0200908 0)
(0.058344 -0.0817616 0)
(0.0687424 -0.086165 0)
(0.0876395 -0.0944989 0)
(0.108209 -0.0970211 0)
(0.130026 -0.0934875 0)
(0.151904 -0.083575 0)
(0.172023 -0.0674437 0)
(0.188103 -0.0460229 0)
(0.197972 -0.0211793 0)
(0.0778831 -0.106641 0)
(0.0905873 -0.109625 0)
(0.11257 -0.116109 0)
(0.136275 -0.116066 0)
(0.161 -0.109303 0)
(0.185266 -0.0955801 0)
(0.206978 -0.0752575 0)
(0.223741 -0.0495557 0)
(0.233505 -0.0206304 0)
(0.0999895 -0.132942 0)
(0.115109 -0.133863 0)
(0.139932 -0.137521 0)
(0.16637 -0.134094 0)
(0.193416 -0.123461 0)
(0.219327 -0.105522 0)
(0.24185 -0.0808809 0)
(0.258634 -0.0510258 0)
(0.267854 -0.0183073 0)
(0.124794 -0.159994 0)
(0.142398 -0.15822 0)
(0.169765 -0.158137 0)
(0.198461 -0.15058 0)
(0.227175 -0.135525 0)
(0.253975 -0.113067 0)
(0.27658 -0.0840647 0)
(0.292809 -0.0502265 0)
(0.301101 -0.0139997 0)
(0.15254 -0.18705 0)
(0.172634 -0.181953 0)
(0.202166 -0.177273 0)
(0.232552 -0.164901 0)
(0.262223 -0.144964 0)
(0.289156 -0.117788 0)
(0.311157 -0.0844654 0)
(0.326282 -0.0468542 0)
(0.333249 -0.00741875 0)
(0.183597 -0.213247 0)
(0.206092 -0.204173 0)
(0.237319 -0.194091 0)
(0.268739 -0.1763 0)
(0.298591 -0.151122 0)
(0.324855 -0.119122 0)
(0.345533 -0.0815995 0)
(0.358976 -0.040489 0)
(0.364222 0.00183005 0)
(0.218485 -0.237476 0)
(0.2432 -0.223736 0)
(0.275521 -0.207487 0)
(0.307169 -0.183744 0)
(0.336289 -0.153079 0)
(0.360983 -0.11629 0)
(0.379548 -0.0748058 0)
(0.390723 -0.0305456 0)
(0.393892 0.0143038 0)
(0.257958 -0.258184 0)
(0.284536 -0.238994 0)
(0.317105 -0.215867 0)
(0.347923 -0.185772 0)
(0.375185 -0.149557 0)
(0.397272 -0.108205 0)
(0.412889 -0.0631573 0)
(0.421203 -0.0162039 0)
(0.421925 0.0307399 0)
(0.302932 -0.273005 0)
(0.330703 -0.247422 0)
(0.36225 -0.21682 0)
(0.390778 -0.18025 0)
(0.414766 -0.138763 0)
(0.433067 -0.0934027 0)
(0.44486 -0.045478 0)
(0.449706 0.00349809 0)
(0.447583 0.0519785 0)
(0.354081 -0.278103 0)
(0.381839 -0.245114 0)
(0.410326 -0.206918 0)
(0.4345 -0.164404 0)
(0.453477 -0.118552 0)
(0.466695 -0.0702522 0)
(0.473787 -0.0205278 0)
(0.474621 0.0295199 0)
(0.469315 0.0787794 0)
(0.408202 -0.266219 0)
(0.433366 -0.225728 0)
(0.455732 -0.181817 0)
(0.473343 -0.135465 0)
(0.485903 -0.0873135 0)
(0.493234 -0.0379696 0)
(0.49524 0.0119102 0)
(0.491915 0.0616461 0)
(0.483357 0.110561 0)
(0.436031 -0.255451 0)
(0.45897 -0.211483 0)
(0.477489 -0.165477 0)
(0.491409 -0.117878 0)
(0.500597 -0.0691443 0)
(0.504964 -0.0197443 0)
(0.504468 0.0298459 0)
(0.499113 0.0791486 0)
(0.488952 0.127689 0)
(0 0 0)
(0 0 0)
(0 0 0)
(0 0 0)
(0 0 0)
(0 0 0)
(0 0 0)
(0 0 0)
(-0.00745973 -0.0420288 0)
(-0.00119444 -0.0436295 0)
(0.0048592 -0.0425873 0)
(0.00966008 -0.0390099 0)
(0.0124557 -0.0334653 0)
(0.0129749 -0.0267624 0)
(0.0113776 -0.0196068 0)
(0.00810283 -0.0124348 0)
(-0.0133379 -0.0831238 0)
(-0.0013913 -0.0856534 0)
(0.00998181 -0.0835379 0)
(0.0190562 -0.077038 0)
(0.0246168 -0.0671321 0)
(0.026195 -0.0551187 0)
(0.0239829 -0.0421436 0)
(0.0185988 -0.0289293 0)
(-0.017611 -0.122709 0)
(-0.000581271 -0.125584 0)
(0.0154273 -0.122358 0)
(0.028289 -0.113498 0)
(0.0365381 -0.100276 0)
(0.0395631 -0.0842181 0)
(0.0375395 -0.0667362 0)
(0.0311317 -0.0487332 0)
(-0.0203187 -0.160847 0)
(0.00126691 -0.163638 0)
(0.0213637 -0.15932 0)
(0.0376401 -0.14858 0)
(0.0485041 -0.132855 0)
(0.0532642 -0.113784 0)
(0.0520714 -0.0929364 0)
(0.04557 -0.0713017 0)
(-0.0214497 -0.197626 0)
(0.00423996 -0.200004 0)
(0.027985 -0.194651 0)
(0.0473776 -0.182409 0)
(0.0607889 -0.164804 0)
(0.0675182 -0.143576 0)
(0.0676762 -0.120334 0)
(0.0618663 -0.0960887 0)
(-0.0209331 -0.233138 0)
(0.00847026 -0.234855 0)
(0.0355026 -0.228499 0)
(0.0577666 -0.215033 0)
(0.0736797 -0.196055 0)
(0.0825689 -0.173357 0)
(0.084499 -0.148519 0)
(0.0800513 -0.122545 0)
(-0.0186305 -0.267484 0)
(0.0141462 -0.268341 0)
(0.0441552 -0.260978 0)
(0.0690977 -0.246491 0)
(0.0874901 -0.226543 0)
(0.0986965 -0.202901 0)
(0.102757 -0.177101 0)
(0.100248 -0.150124 0)
(-0.0143287 -0.300744 0)
(0.0215028 -0.300533 0)
(0.0542236 -0.292142 0)
(0.0816989 -0.276793 0)
(0.102568 -0.256163 0)
(0.11624 -0.231969 0)
(0.12275 -0.205693 0)
(0.12267 -0.178267 0)
(-0.00773716 -0.332923 0)
(0.0308486 -0.331426 0)
(0.0660585 -0.321985 0)
(0.0959598 -0.305887 0)
(0.11932 -0.284768 0)
(0.135603 -0.260276 0)
(0.144843 -0.233846 0)
(0.147624 -0.206353 0)
(0.00153995 -0.363941 0)
(0.042597 -0.36097 0)
(0.0801102 -0.350444 0)
(0.112358 -0.333645 0)
(0.13824 -0.312128 0)
(0.157277 -0.287455 0)
(0.169512 -0.261018 0)
(0.17555 -0.233654 0)
(0.0140598 -0.393667 0)
(0.0573072 -0.389032 0)
(0.0969442 -0.377335 0)
(0.131471 -0.359803 0)
(0.159929 -0.337882 0)
(0.181893 -0.313015 0)
(0.197392 -0.286521 0)
(0.207041 -0.259238 0)
(0.0305605 -0.421763 0)
(0.0756537 -0.415232 0)
(0.11721 -0.402207 0)
(0.153965 -0.383823 0)
(0.185093 -0.361379 0)
(0.210201 -0.336169 0)
(0.229274 -0.309382 0)
(0.242906 -0.281835 0)
(0.0518743 -0.447483 0)
(0.0984094 -0.438792 0)
(0.141662 -0.424233 0)
(0.180606 -0.40477 0)
(0.21453 -0.381499 0)
(0.243041 -0.355548 0)
(0.266072 -0.327961 0)
(0.284135 -0.299463 0)
(0.0787407 -0.469269 0)
(0.126169 -0.458179 0)
(0.170785 -0.441845 0)
(0.2118 -0.42098 0)
(0.248615 -0.396406 0)
(0.280842 -0.369005 0)
(0.308347 -0.33963 0)
(0.331444 -0.308872 0)
(0.110555 -0.483346 0)
(0.157997 -0.469755 0)
(0.203344 -0.451417 0)
(0.24604 -0.428711 0)
(0.285608 -0.402084 0)
(0.321661 -0.372033 0)
(0.353932 -0.339073 0)
(0.382347 -0.303629 0)
(0.127689 -0.488952 0)
(0.175 -0.474082 0)
(0.220625 -0.454646 0)
(0.264126 -0.430831 0)
(0.305083 -0.402868 0)
(0.343102 -0.371025 0)
(0.377817 -0.335608 0)
(0.408893 -0.29696 0)
(0 0 0)
(0 0 0)
(0 0 0)
(0 0 0)
(0 0 0)
(0 0 0)
(0 0 0)
(0 0 0)
(-0.00745973 -0.0420288 0)
(-0.00119444 -0.0436295 0)
(0.0048592 -0.0425873 0)
(0.00966008 -0.0390099 0)
(0.0124557 -0.0334653 0)
(0.0129749 -0.0267624 0)
(0.0113776 -0.0196068 0)
(0.00810283 -0.0124348 0)
(-0.0133379 -0.0831238 0)
(-0.0013913 -0.0856534 0)
(0.00998181 -0.0835379 0)
(0.0190562 -0.077038 0)
(0.0246168 -0.0671321 0)
(0.026195 -0.0551187 0)
(0.0239829 -0.0421436 0)
(0.0185988 -0.0289293 0)
(-0.017611 -0.122709 0)
(-0.000581271 -0.125584 0)
(0.0154273 -0.122358 0)
(0.028289 -0.113498 0)
(0.0365381 -0.100276 0)
(0.0395631 -0.0842181 0)
(0.0375395 -0.0667362 0)
(0.0311317 -0.0487332 0)
(-0.0203187 -0.160847 0)
(0.00126691 -0.163638 0)
(0.0213637 -0.15932 0)
(0.0376401 -0.14858 0)
(0.0485041 -0.132855 0)
(0.0532642 -0.113784 0)
(0.0520714 -0.0929364 0)
(0.04557 -0.0713017 0)
(-0.0214497 -0.197626 0)
(0.00423996 -0.200004 0)
(0.027985 -0.194651 0)
(0.0473776 -0.182409 0)
(0.0607889 -0.164804 0)
(0.0675182 -0.143576 0)
(0.0676762 -0.120334 0)
(0.0618663 -0.0960887 0)
(-0.0209331 -0.233138 0)
(0.00847026 -0.234855 0)
(0.0355026 -0.228499 0)
(0.0577666 -0.215033 0)
(0.0736797 -0.196055 0)
(0.0825689 -0.173357 0)
(0.084499 -0.148519 0)
(0.0800513 -0.122545 0)
(-0.0186305 -0.267484 0)
(0.0141462 -0.268341 0)
(0.0441552 -0.260978 0)
(0.0690977 -0.246491 0)
(0.0874901 -0.226543 0)
(0.0986965 -0.202901 0)
(0.102757 -0.177101 0)
(0.100248 -0.150124 0)
(-0.0143287 -0.300744 0)
(0.0215028 -0.300533 0)
(0.0542236 -0.292142 0)
(0.0816989 -0.276793 0)
(0.102568 -0.256163 0)
(0.11624 -0.231969 0)
(0.12275 -0.205693 0)
(0.12267 -0.178267 0)
(-0.00773716 -0.332923 0)
(0.0308486 -0.331426 0)
(0.0660585 -0.321985 0)
(0.0959598 -0.305887 0)
(0.11932 -0.284768 0)
(0.135603 -0.260276 0)
(0.144843 -0.233846 0)
(0.147624 -0.206353 0)
(0.00153995 -0.363941 0)
(0.042597 -0.36097 0)
(0.0801102 -0.350444 0)
(0.112358 -0.333645 0)
(0.13824 -0.312128 0)
(0.157277 -0.287455 0)
(0.169512 -0.261018 0)
(0.17555 -0.233654 0)
(0.0140598 -0.393667 0)
(0.0573072 -0.389032 0)
(0.0969442 -0.377335 0)
(0.131471 -0.359803 0)
(0.159929 -0.337882 0)
(0.181893 -0.313015 0)
(0.197392 -0.286521 0)
(0.207041 -0.259238 0)
(0.0305605 -0.421763 0)
(0.0756537 -0.415232 0)
(0.11721 -0.402207 0)
(0.153965 -0.383823 0)
(0.185093 -0.361379 0)
(0.210201 -0.336169 0)
(0.229274 -0.309382 0)
(0.242906 -0.281835 0)
(0.0518743 -0.447483 0)
(0.0984094 -0.438792 0)
(0.141662 -0.424233 0)
(0.180606 -0.40477 0)
(0.21453 -0.381499 0)
(0.243041 -0.355548 0)
(0.266072 -0.327961 0)
(0.284135 -0.299463 0)
(0.0787407 -0.469269 0)
(0.126169 -0.458179 0)
(0.170785 -0.441845 0)
(0.2118 -0.42098 0)
(0.248615 -0.396406 0)
(0.280842 -0.369005 0)
(0.308347 -0.33963 0)
(0.331444 -0.308872 0)
(0.110555 -0.483346 0)
(0.157997 -0.469755 0)
(0.203344 -0.451417 0)
(0.24604 -0.428711 0)
(0.285608 -0.402084 0)
(0.321661 -0.372033 0)
(0.353932 -0.339073 0)
(0.382347 -0.303629 0)
(0.127689 -0.488952 0)
(0.175 -0.474082 0)
(0.220625 -0.454646 0)
(0.264126 -0.430831 0)
(0.305083 -0.402868 0)
(0.343102 -0.371025 0)
(0.377817 -0.335608 0)
(0.408893 -0.29696 0)
)
;

boundaryField
{
    walls
    {
        type            fixedValue;
        value           uniform (0 0 0);
    }
    cylinder
    {
        type            solidBodyMotionDisplacement;
        value           nonuniform List<vector> 
34
(
(0.436031 -0.255451 0)
(0.436031 -0.255451 0)
(0.45897 -0.211483 0)
(0.45897 -0.211483 0)
(0.477489 -0.165477 0)
(0.477489 -0.165477 0)
(0.491409 -0.117878 0)
(0.491409 -0.117878 0)
(0.500597 -0.0691443 0)
(0.500597 -0.0691443 0)
(0.504964 -0.0197443 0)
(0.504964 -0.0197443 0)
(0.504468 0.0298459 0)
(0.504468 0.0298459 0)
(0.499113 0.0791486 0)
(0.499113 0.0791486 0)
(0.488952 0.127689 0)
(0.488952 0.127689 0)
(0.127689 -0.488952 0)
(0.127689 -0.488952 0)
(0.175 -0.474082 0)
(0.175 -0.474082 0)
(0.220625 -0.454646 0)
(0.220625 -0.454646 0)
(0.264126 -0.430831 0)
(0.264126 -0.430831 0)
(0.305083 -0.402868 0)
(0.305083 -0.402868 0)
(0.343102 -0.371025 0)
(0.343102 -0.371025 0)
(0.377817 -0.335608 0)
(0.377817 -0.335608 0)
(0.408893 -0.29696 0)
(0.408893 -0.29696 0)
)
;
        solidBodyMotionFunction oscillatingRotatingMotion;
        oscillatingRotatingMotionCoeffs
        {
            origin          ( 0 0 0 );
            axis            ( 0 0 1 );
            omega           1.5;
            amplitude       ( 0 0 30 );
        }
    }
    outlet
    {
        type            fixedValue;
        value           nonuniform List<vector> 0();
    }
    inlet
    {
        type            fixedValue;
        value           uniform (0 0 0);
    }
    frontAndBack
    {
        type            empty;
    }
    procBoundary0to1
    {
        type            processor;
    }
    procBoundary0to2
    {
        type            processor;
    }
}


// ************************************************************************* //
