/*--------------------------------*- C++ -*----------------------------------*\
| =========                 |                                                 |
| \\      /  F ield         | OpenFOAM: The Open Source CFD Toolbox           |
|  \\    /   O peration     | Version:  2412                                  |
|   \\  /    A nd           | Website:  www.openfoam.com                      |
|    \\/     M anipulation  |                                                 |
\*---------------------------------------------------------------------------*/
FoamFile
{
    version     2.0;
    format      ascii;
    arch        "LSB;label=32;scalar=64";
    class       volVectorField;
    location    "13.8";
    object      U;
}
// * * * * * * * * * * * * * * * * * * * * * * * * * * * * * * * * * * * * * //

dimensions      [0 1 -1 0 0 0 0];

internalField   nonuniform List<vector> 
808
(
(0.891059 -0.0139342 0)
(1.02383 -0.0365795 0)
(1.13623 0.0138232 0)
(1.07046 0.0123672 -1.9875e-21)
(1.47997 -0.287796 0)
(0.95753 -0.026362 0)
(1.12972 -0.0597413 2.54708e-21)
(1.11237 -0.02375 0)
(1.35469 -0.22701 2.8148e-20)
(1.23127 -0.0883786 -1.3865e-20)
(1.1472 -0.0256082 5.67482e-21)
(1.38516 -0.256515 0)
(1.00196 -0.0292328 0)
(0.729038 -0.0248369 0)
(0.907606 0.0738485 1.74455e-20)
(1.074 -0.0264323 0)
(0.796254 0.03181 -5.50816e-21)
(0.986124 -0.0214743 5.15005e-25)
(1.14841 0.0221539 0)
(1.1155 0.00555071 0)
(1.17191 -0.0420046 -7.9197e-21)
(0.928984 0.122287 1.08183e-19)
(1.07619 0.0128838 -1.0466e-20)
(1.17866 -0.0331255 0)
(0.949218 0.179114 0)
(1.34969 0.0721037 -3.07566e-20)
(1.28426 -0.175704 1.24901e-20)
(0.942183 0.0038503 -1.08009e-21)
(1.05445 -0.00905878 0)
(1.03279 0.0349568 -1.44464e-22)
(0.964404 -0.00456555 1.3482e-25)
(1.12275 -0.0120597 0)
(1.01391 0.0230344 0)
(1.04139 0.0104483 8.3021e-22)
(1.30741 -0.0711932 1.06379e-20)
(0.742115 -0.11986 1.08417e-19)
(0.865519 -0.0322693 4.06807e-22)
(1.0025 0.0351479 6.04527e-22)
(1.19157 0.0493779 2.93249e-22)
(1.06917 0.0149658 0)
(1.26285 -0.0643244 -2.12195e-20)
(1.2769 -0.130922 0)
(1.00679 -0.00135753 -4.61968e-21)
(1.10298 -0.0390376 3.12005e-21)
(1.25694 -0.0165603 0)
(1.01125 0.0171998 -1.71396e-20)
(0.97808 0.0317037 -2.71461e-23)
(1.25657 -0.250991 1.34133e-20)
(1.17364 0.0535532 1.36848e-21)
(1.41056 -0.179869 -4.06649e-20)
(1.12337 -0.070608 -3.50054e-21)
(1.15152 -0.0708217 0)
(1.12165 0.00065883 4.102e-21)
(1.07233 -0.00224049 0)
(1.31387 0.237955 4.79095e-21)
(1.06368 0.0479122 4.16218e-22)
(1.07563 -0.00139556 0)
(1.17011 -0.0310632 3.20445e-21)
(1.237 -0.0939523 1.4883e-20)
(1.14022 0.0324877 1.30239e-21)
(-0.365403 0.16814 0)
(1.21711 -0.214568 -1.02629e-20)
(1.16225 -0.0387746 0)
(1.43334 -0.0770662 -3.19379e-20)
(1.11958 -0.0314768 -4.10704e-21)
(1.03821 -0.0287119 -4.70863e-21)
(1.36397 -0.125634 3.2232e-20)
(0.614431 0.00303472 0)
(1.117 -0.0494727 0)
(1.44859 -0.355357 0)
(0.872172 0.0343733 -4.0445e-23)
(1.25552 -0.141954 -4.31408e-20)
(0.999595 0.0592288 0)
(1.04795 -0.0398761 -1.042e-22)
(1.12722 -0.338517 -5.24005e-20)
(1.10861 -0.0598489 -1.1051e-21)
(1.14065 0.0253096 8.57234e-22)
(1.31241 0.493737 2.45778e-20)
(1.1049 -0.0544487 0)
(1.01115 0.277534 -1.79118e-19)
(1.3608 0.0437416 1.8879e-20)
(0.717276 0.0229921 0)
(0.834769 0.0332432 -2.35694e-21)
(0.968329 -0.111679 3.93222e-21)
(1.10265 -0.0552452 1.3231e-21)
(1.18854 0.0170001 2.13882e-21)
(1.29115 -0.237695 0)
(1.34106 0.285513 0)
(1.09057 0.00294709 -2.06615e-21)
(1.3802 0.10795 3.475e-20)
(1.0755 -0.0172493 5.68733e-21)
(1.32399 -0.121783 -1.63189e-21)
(0.965076 0.0252135 1.63674e-20)
(1.00381 -0.0236878 0)
(1.1188 0.0179851 9.62074e-22)
(1.3298 -0.0551197 -8.46921e-20)
(0.790883 0.00204325 -3.93987e-22)
(1.37671 -0.0405416 0)
(1.32741 -0.0862953 0)
(1.43181 -0.0885404 -4.98491e-20)
(1.08741 -0.0583322 6.07236e-22)
(1.12195 0.0119534 1.46727e-22)
(0.952914 0.0239238 5.38293e-21)
(1.18222 0.00605272 -1.00784e-21)
(1.31894 0.0342253 -2.98513e-20)
(1.00006 0.00570689 1.04212e-20)
(1.47663 -0.0360149 0)
(0.996614 0.0297839 0)
(1.09173 0.0328307 -1.33481e-21)
(1.20615 -0.22078 -4.99613e-21)
(1.26844 0.0181087 1.50587e-20)
(1.045 0.0448981 -1.19418e-19)
(1.15264 0.0433057 7.08354e-22)
(1.21782 0.0987986 1.50597e-21)
(0.815653 0.00707979 0)
(0.917668 -0.049989 7.34961e-20)
(1.14343 0.0204831 2.32713e-21)
(1.44313 -0.265956 -1.96467e-20)
(1.10108 -0.0487972 -1.0278e-21)
(0.920142 0.0164975 2.35803e-21)
(-0.481278 0.00381832 0)
(0.86605 -0.0154619 2.31625e-21)
(0.809596 0.0283463 0)
(1.06816 0.00209542 -5.56488e-23)
(1.01206 0.029605 0)
(1.30391 0.322174 7.36765e-21)
(1.03456 -0.0536019 -2.51271e-20)
(1.34681 0.103472 8.36389e-22)
(1.15218 -0.0629109 0)
(1.09045 -0.0230973 0)
(0.623829 -0.0392719 0)
(1.10855 -0.0330482 -7.34197e-22)
(1.24693 -0.0472865 1.24982e-20)
(1.06461 0.112023 -3.14643e-20)
(0.859964 -0.0152542 0)
(1.10123 0.0215055 5.26961e-22)
(1.15969 0.117074 2.46632e-21)
(1.12898 0.00934104 -5.10031e-22)
(0.973939 0.0340554 4.97992e-23)
(1.12517 0.011517 -1.23005e-22)
(-0.0242509 0.0241091 0)
(1.0941 -0.0221327 -6.40514e-21)
(1.15504 0.0515191 2.13292e-21)
(0.723537 0.0279262 -1.49776e-22)
(1.25433 0.170877 2.82904e-21)
(1.14854 0.13778 2.19106e-21)
(1.04982 0.0177639 1.24794e-20)
(0.991663 0.0278911 0)
(1.20362 -0.0881897 -3.32307e-20)
(1.04946 0.0354042 0)
(0.919948 0.0324851 9.32314e-24)
(0.967759 0.277413 1.43253e-19)
(0.95808 0.0326685 0)
(0.818078 0.0930029 0)
(-0.12312 -0.00980102 -6.76472e-20)
(1.33517 0.137786 -1.24528e-20)
(0.658186 -0.0234407 0)
(1.43077 0.0628534 0)
(1.13774 0.0757018 0)
(1.35307 0.108579 1.39709e-20)
(-0.0425272 -0.127096 0)
(-0.0645793 0.0301218 3.21024e-20)
(1.01812 -0.0530932 8.92391e-20)
(0.995095 0.0376603 -4.68313e-22)
(0.865849 0.000226679 0)
(1.03003 -0.0457439 1.75488e-21)
(0.895138 0.0221898 0)
(0.766662 -0.0370006 -9.64361e-20)
(1.01893 0.0465845 -1.74629e-21)
(1.11348 -0.0445302 1.56214e-21)
(1.09274 0.0115516 1.80438e-21)
(1.01324 0.0682626 -1.1037e-20)
(0.85033 0.103537 -2.18122e-21)
(1.14118 -0.351823 3.98305e-22)
(0.916367 -0.0239793 0)
(1.06588 0.000530543 -9.27067e-21)
(0.875659 0.00973972 -8.85635e-21)
(1.38376 -0.168812 2.47764e-21)
(0.68534 0.0283386 0)
(1.05264 -0.145268 0)
(1.10863 -0.0342063 1.84018e-21)
(1.38295 0.217131 9.87556e-21)
(1.11436 0.0197156 3.13557e-22)
(1.03684 0.0181045 1.75859e-20)
(0.655356 0.0777612 -7.04968e-20)
(0.812449 0.00377674 1.69188e-20)
(1.13957 -0.0221819 4.89054e-22)
(1.38571 -0.0657674 -5.95173e-21)
(1.10656 -0.0391312 -3.05894e-21)
(1.32243 -0.0383099 5.10012e-21)
(-0.126377 0.0247695 4.89909e-20)
(1.27396 -0.0204906 0)
(0.585726 -0.0187675 0)
(1.06372 -0.023964 -4.38472e-21)
(1.09912 0.0142121 -2.3443e-21)
(0.0104887 0.0687267 0)
(0.882512 -0.023251 3.14468e-23)
(1.11997 -0.0322121 -1.29757e-21)
(0.996833 -0.00409212 7.52312e-22)
(1.07815 0.0394102 -6.4294e-21)
(1.01051 0.0195629 2.61914e-21)
(1.04583 -0.0275367 1.14461e-21)
(1.04059 0.0207626 0)
(0.341399 -0.0435629 0)
(1.04703 -0.0638199 0)
(1.12296 0.108411 -2.73538e-20)
(-0.0389089 -0.13698 4.91342e-20)
(1.0717 -0.0144406 -6.07653e-24)
(1.1564 0.0144252 0)
(0.763015 0.0238038 9.36132e-23)
(1.12081 -0.0147673 1.669e-22)
(-0.00751356 -0.0401647 -1.57319e-19)
(0.858164 0.0145042 -5.87785e-20)
(0.605465 -0.0210388 0)
(1.03449 -0.0105338 0)
(0.904992 0.046028 1.43327e-21)
(1.0233 -0.115166 6.12018e-21)
(1.27107 0.395558 -4.60383e-22)
(1.09628 -0.00106397 -4.5325e-23)
(1.16898 -0.0378561 -2.56601e-21)
(1.04252 0.0135218 0)
(1.35381 0.420724 -3.7481e-20)
(0.636329 -0.0203415 0)
(0.812336 -0.0125558 -9.43364e-22)
(1.03045 0.00587065 6.50072e-24)
(0.547648 0.013127 0)
(1.10039 -0.00662019 0)
(0.0537376 0.0120757 -4.98106e-20)
(1.18744 -0.0644144 -4.20452e-21)
(0.772684 0.00310679 9.84478e-23)
(0.990681 -0.00284774 0)
(0.550177 -0.00352515 0)
(0.784302 -0.00133396 -1.06918e-22)
(0.562596 -0.00493807 2.77918e-22)
(1.34421 0.0495983 3.65375e-22)
(1.16189 0.00149774 -2.50076e-21)
(0.764552 -0.00230326 -4.39691e-22)
(1.06362 0.00394072 4.08626e-23)
(1.11749 -0.00165747 4.27087e-23)
(0.562479 0.00235454 1.04657e-21)
(1.09551 0.00363148 2.0319e-22)
(1.10055 0.0055701 0)
(1.04102 0.0145277 0)
(0.55686 0.00980512 0)
(1.02779 0.00959178 0)
(1.09799 -0.00133027 -3.27559e-22)
(1.08532 0.00384248 0)
(1.07632 0.0103429 0)
(1.07726 0.0177832 0)
(1.12862 0.121569 0)
(-0.0252537 -0.0530035 4.9293e-20)
(1.12314 0.00618078 1.75952e-22)
(1.09829 0.0416933 0)
(1.3303 0.0354458 2.0898e-20)
(1.11362 -0.00788861 2.21833e-22)
(1.11256 0.0475681 -1.50151e-21)
(1.1277 -0.0604624 2.67538e-21)
(1.09729 0.0119417 0)
(0.558236 -0.00959012 1.10008e-21)
(1.05017 0.0441936 1.07346e-20)
(1.21667 -0.0733739 0)
(1.10891 -0.0115332 -2.43376e-22)
(1.14138 -0.0107981 1.22635e-21)
(0.616397 -0.0077051 -4.24601e-21)
(1.10537 0.013553 2.66698e-21)
(1.1157 -0.01253 -1.67441e-21)
(1.02689 0.0142858 0)
(1.19858 0.105246 -6.78592e-21)
(1.18851 0.0229296 -1.81439e-21)
(0.808411 0.0704531 9.49872e-21)
(0.916976 -0.0288565 0)
(-0.0208125 -0.0229614 0)
(0.974624 0.110901 -1.72348e-20)
(1.08575 -0.0133873 0)
(1.33495 -0.0995665 3.76487e-20)
(1.15492 0.0177678 3.62813e-22)
(1.10394 -0.00775839 1.6096e-21)
(1.15536 0.00898883 -1.0155e-21)
(1.37081 -0.0231491 1.22412e-19)
(1.02172 -0.328406 5.29045e-20)
(1.10569 -0.0348893 -1.70747e-22)
(0.934892 -0.0162762 0)
(0.967199 -0.0111941 0)
(0.897975 0.00111526 -2.04302e-20)
(1.32412 -0.0929005 -6.04841e-20)
(1.11154 -0.0397147 0)
(0.725004 0.114025 1.12204e-20)
(0.412366 -0.0504933 0)
(0.89673 -0.0562789 3.9154e-21)
(0.885224 0.0904921 -1.29036e-20)
(0.797386 0.0308167 -7.59026e-22)
(1.15291 -0.0538639 0)
(1.19934 0.00911195 -4.23206e-22)
(1.185 0.0158406 2.69974e-21)
(0.85551 -0.0296619 -4.5519e-21)
(1.12804 -0.0481613 -2.46201e-21)
(0.857815 0.00292656 0)
(1.09176 0.0733954 0)
(1.17852 -0.0910277 2.8787e-21)
(0.914312 -0.0585113 -3.95522e-21)
(1.19963 0.0208114 3.05921e-21)
(1.09125 -0.0283654 -1.07575e-21)
(0.982325 -0.0194969 3.72546e-22)
(1.07834 -0.0192717 0)
(0.417434 -0.139496 1.42964e-20)
(1.33348 0.0976445 -2.38002e-20)
(0.900385 0.0358576 -1.10126e-20)
(0.094143 -0.160237 4.49017e-21)
(1.43025 -0.1343 2.83293e-20)
(0.852125 0.0360301 6.51018e-20)
(1.22341 -0.0765114 -2.98185e-21)
(1.09127 -0.0347765 -2.52852e-22)
(-0.0491585 -0.138437 -8.39416e-21)
(0.998027 -0.00607684 0)
(1.03467 -0.0878655 -1.49742e-20)
(0.856072 -0.0331466 -4.4958e-22)
(1.07532 -0.0500266 1.2377e-22)
(0.872095 -0.0113225 -7.87372e-22)
(0.574189 -0.00842025 7.07777e-23)
(1.41961 -0.386455 -1.55718e-20)
(1.08761 0.0489047 0)
(1.03524 -0.000108502 -5.14386e-22)
(1.11395 0.0276728 -5.84641e-22)
(1.21858 -0.0469937 0)
(0.919686 -0.042956 -5.68744e-21)
(1.11256 0.0518587 8.54515e-22)
(0.785176 0.0325955 1.25294e-20)
(1.15867 -0.054131 1.56492e-20)
(0.944065 -0.0584068 3.1863e-21)
(-0.0364162 -0.0845393 0)
(0.245367 0.0568474 -4.92514e-22)
(1.1109 0.0233493 0)
(0.948666 0.0246765 -2.89667e-21)
(0.948753 0.0643943 0)
(1.1299 -0.00901794 -2.4986e-21)
(1.01631 0.0269998 0)
(1.1467 -0.0707192 0)
(1.40013 -0.117929 2.41999e-20)
(0.798402 -0.0912321 0)
(1.12267 -0.0243746 1.81999e-20)
(1.05515 -0.00110463 5.54616e-23)
(1.02641 0.0416272 7.02581e-22)
(1.31251 -0.0551185 -2.1419e-20)
(1.24378 0.128278 -6.38597e-21)
(1.19406 -0.0346242 8.42632e-21)
(1.12452 0.0625516 0)
(1.15864 -0.0774479 0)
(1.09695 0.0704799 9.59179e-22)
(1.24136 -0.034887 0)
(1.38976 0.213934 -2.46519e-20)
(0.799511 0.0312543 1.64834e-21)
(1.02676 0.017234 1.86758e-20)
(1.24342 0.030381 -4.01607e-22)
(-0.00961578 -0.0292744 0)
(-0.0337709 -0.0887402 0)
(0.0734383 0.0652178 -4.46669e-20)
(-0.0373104 -0.128431 0)
(0.688887 0.0693713 -9.39417e-21)
(1.17131 0.0472432 -2.86229e-22)
(1.1305 -0.0664311 -8.18144e-22)
(1.21939 -0.147185 -6.51148e-21)
(1.23104 -0.0564041 0)
(0.762677 0.00176787 -3.90396e-22)
(1.13857 0.0748585 0)
(1.08727 -0.00385074 3.52664e-22)
(0.505301 -0.110266 0)
(0.706481 0.0211933 -4.07682e-22)
(1.12987 0.0734149 0)
(1.12108 0.030769 0)
(0.714582 0.106593 5.64536e-20)
(0.569377 0.0367189 -1.58088e-21)
(1.00942 0.042492 1.13535e-21)
(1.0143 0.0165813 -7.24477e-21)
(0.188523 -0.0932405 0)
(1.15803 -0.0140895 -1.87342e-20)
(1.22364 0.0466133 -7.04771e-21)
(1.16212 -0.028558 1.40936e-21)
(0.637537 -0.0288079 1.07658e-20)
(-0.048023 -0.111175 -1.00996e-19)
(1.16203 0.077979 0)
(-0.0329566 0.0340624 0)
(1.19566 0.0624879 -2.35651e-21)
(0.46518 -0.0614272 -1.15857e-20)
(1.09965 0.0320376 -5.68048e-21)
(1.09976 -0.0472802 0)
(1.12881 -0.056872 4.00266e-22)
(1.30886 -0.247282 3.17427e-20)
(0.54648 -0.0512033 -1.01328e-20)
(1.14707 -0.0435083 3.25591e-21)
(1.14678 -0.0862205 1.6765e-22)
(0.443539 -0.160515 3.01401e-20)
(1.18532 -0.101989 -5.09405e-21)
(1.13082 0.0369445 0)
(1.16736 0.0862659 0)
(1.18273 -0.0949095 6.86548e-21)
(1.18962 0.0599583 6.36941e-21)
(0.813406 -0.174239 -8.35691e-20)
(1.19415 -0.119338 -6.57263e-21)
(1.12626 0.0551344 -9.55189e-22)
(0.474526 -0.00570143 2.21004e-21)
(0.398282 0.055761 -1.04603e-19)
(0.057602 -0.000770717 4.76762e-20)
(1.16839 0.185801 -6.51189e-21)
(1.24028 -0.498751 6.81066e-21)
(1.36678 0.0639935 -1.83325e-20)
(1.21298 -0.0695034 -8.13599e-21)
(0.939765 -0.238542 9.06459e-20)
(-0.305913 0.0263154 0)
(1.09708 -0.00190496 -2.60858e-22)
(-0.140695 0.133012 -2.14879e-20)
(1.18625 0.0837729 2.0392e-21)
(1.18137 -0.0456099 3.71098e-21)
(1.0752 0.0391039 0)
(0.651033 -0.119668 0)
(1.1724 -0.0496374 0)
(1.271 0.10878 -6.50448e-22)
(1.25134 -0.0148258 -3.13184e-20)
(1.15338 -0.057622 -7.44725e-21)
(0.553591 0.0117891 0)
(0.704244 0.00441688 0)
(0.709314 0.000199635 2.98904e-22)
(0.544306 -0.01149 0)
(1.15279 0.0287734 0)
(1.02025 -0.0134331 1.97529e-20)
(0.425305 -0.22444 0)
(0.928773 -0.00560573 0)
(1.06492 -0.00492423 0)
(1.17215 0.186225 -4.23516e-21)
(1.25111 0.0345209 1.21194e-20)
(0.964602 -0.0312788 3.08898e-21)
(1.30008 -0.404072 -1.14598e-19)
(0.664071 -0.226267 9.15344e-21)
(1.24209 0.104525 2.7456e-21)
(1.18506 -0.0368841 0)
(-0.388314 0.0230099 0)
(-0.224797 0.112536 0)
(1.17292 -0.042235 -1.20235e-20)
(1.32674 -0.291796 -3.3721e-20)
(1.30194 0.0833035 0)
(1.07339 0.0657659 -2.0399e-21)
(0.477058 -0.0438899 0)
(1.51634 -0.165523 8.0628e-20)
(0.409203 0.514276 1.15045e-19)
(0.284603 -0.0527798 0)
(1.10519 -0.279814 1.2302e-19)
(0.26831 0.185932 0)
(-0.170176 -0.239752 1.59703e-20)
(1.31055 0.0825071 0)
(-0.173588 0.067116 1.55302e-21)
(0.983438 -0.0495608 0)
(1.28647 -0.138694 -1.7202e-20)
(-0.129043 -0.0432755 -8.2616e-21)
(1.12246 -0.036275 -1.93132e-21)
(1.12938 -0.0262755 -8.26439e-21)
(0.577035 -0.524377 -8.90059e-20)
(1.1253 -0.0119708 -4.1538e-22)
(1.19572 -0.126859 2.96604e-22)
(1.17626 0.247842 -1.86043e-20)
(1.16057 -0.253918 -7.23134e-21)
(1.17046 -0.0221705 -2.06527e-21)
(-0.13085 0.0650593 -6.61821e-20)
(0.00619744 0.0610813 -7.07003e-21)
(1.30826 0.123274 1.41263e-21)
(1.05642 -0.0503523 0)
(0.606031 0.0738379 -2.59017e-21)
(1.40986 -0.445787 8.94098e-20)
(0.945228 -0.0816213 -6.46601e-20)
(1.40812 0.161387 7.23796e-20)
(1.07211 -0.0459499 -6.36499e-22)
(1.14415 -0.0619556 5.86816e-21)
(1.0632 -0.00631067 0)
(1.18038 -0.0184665 0)
(1.28427 -0.121695 8.2862e-21)
(1.08716 -0.0204486 -4.55919e-21)
(1.17597 -0.230999 8.06199e-21)
(1.09352 0.0488241 -1.60015e-21)
(1.43081 -0.0102915 -5.40253e-20)
(0.419738 0.0260378 0)
(1.17781 -0.116015 -1.35553e-21)
(1.29037 0.0764778 0)
(1.11536 0.0599827 1.84281e-22)
(1.14473 0.0231918 0)
(1.04572 -0.00836903 8.98032e-21)
(1.23867 0.0401968 1.82332e-20)
(1.10579 -0.037285 0)
(0.0532536 -0.0298188 1.64734e-19)
(0.884324 -0.217418 -7.1098e-20)
(1.31223 0.025625 -3.46761e-20)
(-0.101334 -0.0682905 4.17527e-20)
(1.18763 0.0338904 4.4572e-22)
(0.915798 -0.0133281 -2.23604e-21)
(-0.0984253 -0.0496685 -4.35354e-20)
(-0.0200418 -0.0218837 -2.67494e-20)
(1.01813 -0.0296026 0)
(-0.0306658 -0.0393969 0)
(1.19442 0.0881545 0)
(0.112345 -0.110773 0)
(1.11629 -0.033167 0)
(0.136475 0.0279418 0)
(1.11609 0.0495643 0)
(1.13818 0.0976315 0)
(1.34191 0.0858599 -6.05289e-23)
(0.579679 -0.287765 -2.27502e-20)
(-0.16208 0.0787252 0)
(1.14985 -0.0939642 6.7296e-20)
(1.18421 0.0343369 6.35706e-22)
(1.31843 0.0815956 0)
(-0.038442 -0.0426167 0)
(1.16449 0.0113595 6.39789e-21)
(1.17446 -0.0095093 -3.2804e-21)
(1.16283 0.386813 0)
(0.262218 -0.0832004 6.4947e-20)
(1.12219 0.0623727 8.26759e-22)
(0.235538 -0.0521064 -5.56818e-20)
(-0.0593973 0.0418435 -3.07823e-20)
(-0.0343296 0.0484276 7.99221e-20)
(0.281171 0.0669879 7.97766e-21)
(1.04575 -0.0112959 2.10415e-21)
(1.13597 0.0602311 4.44015e-21)
(1.02475 -0.00839668 0)
(1.07229 -0.0683127 -1.81889e-20)
(1.22618 0.0485824 -1.30259e-20)
(-0.0101984 -0.045493 1.03114e-19)
(0.981226 -0.073198 -5.62305e-20)
(0.756944 0.0462272 5.6618e-21)
(1.14756 0.0309561 -1.97317e-21)
(0.0733013 -0.0318141 3.58607e-20)
(0.246285 -0.0385418 -5.04398e-20)
(0.410979 -0.0636979 -5.8888e-20)
(1.23457 0.0800801 -1.93897e-21)
(-0.0562616 -0.0395254 0)
(1.08197 0.126412 1.80443e-21)
(1.1208 -0.147646 9.78169e-21)
(1.13114 -0.172392 -9.43184e-21)
(1.27422 0.0493517 0)
(1.52106 -0.225492 7.95253e-20)
(1.07634 -0.0129214 -8.23534e-22)
(-0.0159357 -0.0514334 -3.5625e-20)
(0.250443 0.0783581 0)
(0.91396 -0.00540095 -1.07196e-21)
(1.12615 0.0239782 -1.89713e-21)
(0.755419 -0.0585327 2.78467e-20)
(1.17033 0.00943902 -1.9936e-21)
(1.11732 0.051806 0)
(1.14947 -0.172114 -1.56717e-20)
(-0.0639143 -0.0907694 -7.20095e-20)
(1.31456 -0.0163229 2.72678e-20)
(1.10157 0.174181 -8.73658e-21)
(1.08793 0.0544368 1.83008e-21)
(-0.0429434 -0.0666484 1.65552e-20)
(-0.0208636 0.0219723 -6.09906e-20)
(0.783153 0.0736698 0)
(0.755374 0.186717 0)
(1.1511 0.102664 -1.35165e-20)
(1.0515 0.0704149 1.0888e-20)
(1.07002 -0.00640513 0)
(0.55318 -0.0137282 5.66465e-20)
(0.708259 0.0856452 -1.09087e-20)
(1.09739 0.110431 0)
(1.08098 0.0600271 0)
(1.32505 0.0996718 0)
(1.13755 0.0153621 0)
(1.15846 0.0877951 2.00663e-21)
(-0.0427748 0.0432542 3.36181e-20)
(1.15791 0.02482 3.35709e-21)
(1.42118 -0.193725 -9.10733e-20)
(1.19087 0.0744419 -2.8755e-21)
(-0.0457318 0.150732 0)
(1.13694 -0.101088 0)
(0.713478 -0.00465267 -1.05115e-22)
(0.523011 0.00828722 -5.70336e-20)
(0.0684098 0.0360102 4.63963e-20)
(0.983643 0.00168641 6.62644e-22)
(0.746075 -0.27408 0)
(0.681032 -0.0922193 0)
(1.13016 0.0429483 0)
(0.53627 0.509277 2.0156e-20)
(-0.0130779 -0.000294947 -2.93004e-20)
(1.09923 0.0348695 -1.3083e-21)
(-0.0219696 -0.0870071 6.80362e-20)
(1.11341 -0.0230492 1.02175e-21)
(1.16884 0.314165 3.5485e-20)
(1.11486 -0.088196 5.64941e-21)
(0.272318 0.057594 8.67126e-20)
(1.10695 0.120633 1.09732e-21)
(1.09172 -0.0789724 0)
(0.552972 0.26868 0)
(0.972511 -0.0334193 3.24042e-21)
(-0.182555 0.0341139 0)
(0.594618 0.0269906 3.56103e-22)
(0.607053 -0.420315 -3.43428e-21)
(0.23349 0.0487094 -1.09079e-19)
(1.12615 -0.228886 2.58235e-20)
(1.03506 0.36071 9.90746e-21)
(0.979114 0.0166223 0)
(1.15569 -0.0105777 9.11254e-23)
(0.719406 0.00445811 0)
(0.988981 0.00903972 -3.69813e-22)
(0.439718 -0.0214037 0)
(0.711402 0.12408 0)
(0.998618 -0.0240876 -2.96997e-22)
(1.43153 0.180871 -1.36859e-20)
(1.11167 -0.0294284 6.24121e-22)
(0.525114 -0.495598 0)
(1.13486 -0.155709 5.2014e-22)
(0.801412 0.373064 6.96295e-20)
(-0.0391573 0.0209118 1.12598e-21)
(1.23907 -0.0126827 1.35801e-20)
(1.2247 0.0428513 -1.44082e-20)
(1.16072 -0.0442362 4.71393e-22)
(0.791513 0.00174438 5.81065e-22)
(0.0604348 0.0181614 3.59722e-20)
(-0.0163386 -0.0640591 -5.75108e-20)
(-0.175907 0.0582629 0)
(-0.211478 0.189249 0)
(1.19051 -0.619021 3.38521e-20)
(1.15873 -0.0317771 2.01528e-21)
(0.892016 -0.467261 -4.65887e-20)
(1.04935 0.0801523 -4.27682e-21)
(1.35433 0.203843 3.28305e-20)
(0.59876 0.416773 0)
(0.244579 0.410655 -1.14415e-19)
(0.592664 0.474396 0)
(-0.0506689 0.0909925 0)
(1.12698 -0.483 0)
(-0.0439224 -0.0271068 -1.45208e-22)
(1.19658 -0.00860347 0)
(0.792615 0.107989 -8.18858e-21)
(0.590235 0.686173 2.00804e-20)
(1.27325 0.111093 5.09336e-21)
(-0.0321675 -0.119035 -1.16669e-19)
(0.563189 -0.023566 7.30559e-21)
(0.445095 0.142931 -1.31272e-20)
(1.20654 0.0995955 0)
(1.35151 0.358093 3.45424e-20)
(1.21567 0.563171 7.08152e-21)
(0.154033 -0.0147149 -2.14588e-20)
(0.977713 0.131203 3.02847e-20)
(0.929616 0.00127061 3.31764e-22)
(0.934189 0.0032272 -2.07115e-22)
(-0.00932883 -0.0378245 0)
(0.649846 -0.659389 -2.88811e-20)
(0.612573 0.194769 0)
(0.0867662 -0.115531 0)
(-0.0443973 0.0434334 0)
(0.0101178 -0.126279 -4.44134e-20)
(1.24851 -0.00225371 -1.5572e-20)
(-0.034637 0.0355425 0)
(-0.0294031 0.01931 0)
(1.457 0.126447 -7.02072e-20)
(-0.039155 -0.0921046 5.26742e-20)
(0.113997 0.230167 -1.00245e-19)
(0.377519 0.0154126 0)
(0.170414 -0.283137 7.95212e-20)
(1.09256 -0.241702 0)
(0.998722 -0.287749 0)
(0.0108687 -0.110053 1.10434e-19)
(1.15237 0.0391117 3.25546e-23)
(1.12084 0.340914 2.72507e-20)
(0.256289 0.0275675 4.48514e-20)
(0.405672 -0.521689 -3.40114e-20)
(1.25543 0.0909663 0)
(1.20068 0.196749 2.12763e-20)
(1.20629 0.213873 -2.61369e-20)
(0.102013 0.0834214 -2.31681e-20)
(-0.0624465 -0.0558 0)
(1.0707 -0.0570906 -1.90751e-20)
(1.10512 -0.225374 -1.27343e-20)
(0.584677 -0.410692 0)
(1.09725 -0.151114 -2.37515e-20)
(-0.138318 0.152945 0)
(0.563189 0.038428 0)
(1.4242 0.0386221 4.37634e-20)
(0.986244 -0.0164623 1.05912e-22)
(1.07101 0.739507 -1.6457e-20)
(0.226598 -0.38286 1.2706e-19)
(1.07599 -0.0177605 2.80314e-23)
(1.20768 0.0799968 1.21499e-21)
(-0.0464845 0.0239013 2.92016e-20)
(0.781256 0.727626 2.86612e-20)
(1.35406 -0.372809 -1.33552e-20)
(-0.118691 0.0324069 8.22703e-20)
(1.09551 0.0212211 0)
(0.129511 0.0443545 -7.02649e-21)
(0.902191 -0.638764 3.09755e-21)
(0.89291 0.63717 -1.82961e-20)
(0.54981 -0.0366675 -6.64692e-20)
(1.14761 -0.00458303 3.87753e-21)
(1.07781 -0.085755 5.42173e-21)
(1.15373 0.0534281 -2.74015e-21)
(1.1039 0.122764 3.19517e-21)
(1.13355 -0.129054 0)
(0.890328 0.110295 1.37889e-20)
(0.878488 0.455928 0)
(1.26373 0.0731017 2.45689e-21)
(1.16685 0.117392 -1.49897e-21)
(0.742809 0.262448 0)
(0.511683 0.109105 1.04042e-19)
(0.887976 0.707037 -9.96557e-22)
(1.07394 0.289731 -2.09282e-20)
(1.04083 -0.00898479 9.70192e-21)
(0.413302 0.484701 0)
(1.30102 -0.476671 0)
(0.617444 0.0302295 5.56013e-21)
(1.25446 0.502138 0)
(-0.0239258 0.044816 -4.09883e-20)
(1.2878 -0.417992 -1.51126e-20)
(1.15961 0.507488 0)
(0.45205 0.210373 1.67521e-19)
(1.11207 0.314987 -1.15761e-19)
(0.818186 -0.64621 -2.41961e-20)
(1.15826 0.0488946 -4.22942e-21)
(0.90239 0.150653 7.78612e-20)
(1.08549 0.169324 4.93489e-20)
(1.06394 0.699683 6.68323e-22)
(0.906497 -0.44276 6.19162e-20)
(1.41953 0.196357 3.83918e-20)
(1.13271 0.00968232 2.27688e-22)
(0.0014904 -0.0644983 9.7948e-20)
(1.08628 -0.706422 3.14765e-20)
(0.874332 -0.724654 4.8712e-20)
(0.252656 -0.34078 0)
(0.972201 -0.149972 6.91738e-20)
(0.360774 0.300562 -4.3494e-19)
(-0.0750602 0.0510626 2.56554e-20)
(0.222486 0.0303852 2.10615e-20)
(0.678646 -0.0599376 -7.81148e-20)
(1.07381 0.525766 0)
(0.989505 0.220256 7.80614e-20)
(1.08946 0.0314611 2.73756e-21)
(0.905574 0.437838 -8.97736e-20)
(0.785019 -0.729377 -7.52568e-21)
(0.927555 0.0191568 -4.79517e-20)
(0.97357 0.485788 0)
(1.14947 0.0688421 -7.27938e-21)
(1.38557 -0.517825 1.44311e-20)
(1.23155 -0.343673 9.66288e-21)
(-0.284462 0.186703 3.36363e-20)
(0.194609 -0.00449526 -1.79372e-20)
(0.975821 -0.120873 -5.66855e-20)
(0.350012 0.518872 0)
(0.914936 0.0120979 3.82068e-20)
(1.14832 0.633098 7.6995e-20)
(-0.0437444 -0.061208 1.54e-19)
(-0.0670733 -0.00295977 -2.4253e-20)
(-0.07667 -0.112835 4.27292e-20)
(1.10004 0.024267 -3.55989e-21)
(1.13476 -0.463743 0)
(1.07092 -0.739848 -3.68926e-20)
(0.696076 0.343844 0)
(0.0454205 -0.0647865 -1.12531e-19)
(1.06527 -0.0204676 1.04867e-21)
(-0.034852 -0.116773 -3.1129e-20)
(1.04669 0.0578198 -1.21028e-20)
(0.101417 0.0249449 5.31769e-20)
(0.829612 0.125643 0)
(1.36736 -0.0111229 5.28109e-20)
(0.0297548 0.026205 -2.39144e-20)
(-0.228653 0.145455 -3.99486e-20)
(-0.208166 0.131102 0)
(0.0790374 -0.0199265 0)
(1.32771 -0.00577184 -1.60169e-20)
(0.380013 -0.0119197 1.61487e-19)
(1.27148 -0.731099 -2.82762e-20)
(0.891833 0.000204512 3.88529e-20)
(1.06856 0.250227 -2.90375e-20)
(0.370016 -0.564528 1.36252e-19)
(1.53342 0.287722 -3.28432e-20)
(0.0728092 -0.0819761 3.81109e-20)
(0.207138 0.29786 1.94114e-19)
(0.0976103 -0.0515477 -1.42372e-19)
(0.945137 -0.497675 -4.18162e-20)
(1.44193 0.389813 3.38123e-20)
(0.569668 -0.681629 4.68041e-20)
(1.10894 -0.0840714 -5.66603e-21)
(0.209231 0.00724672 6.10938e-20)
(1.16575 0.290702 -4.58188e-20)
(0.658195 0.633785 -4.05085e-20)
(1.34218 -0.627061 0)
(1.40444 0.518657 3.25755e-20)
(1.05674 -0.532809 -1.26417e-20)
(1.37794 0.604623 -9.64486e-20)
(1.17609 0.0297723 0)
(-0.0500404 0.048909 0)
(1.24294 0.725959 0)
(1.13946 0.0186852 -3.93052e-21)
(0.743714 -0.307372 -2.02105e-19)
(0.476622 -0.0894754 0)
(-0.0556487 0.040587 -2.47554e-20)
(1.02207 -0.248058 9.17171e-20)
(-0.291094 0.128796 0)
(0.321264 0.0180698 1.21179e-20)
(1.13816 0.0344212 0)
(1.39857 0.278291 0)
(1.18042 0.0464591 4.52904e-21)
(0.362403 -0.299505 0)
(1.01278 0.149841 3.61928e-20)
(1.29478 0.288627 0)
(-0.0922789 0.0105629 1.22481e-23)
(0.814006 -0.402427 0)
(1.50436 0.344753 -5.026e-20)
(1.23432 0.367979 4.0182e-22)
(0.836151 0.640504 -9.76027e-21)
(1.00891 0.157945 -8.61146e-20)
(0.97052 -0.207468 -4.50594e-20)
(1.44005 0.298922 2.95501e-20)
(0.967738 0.100782 0)
(0.563789 -0.0772781 0)
)
;

boundaryField
{
    FrontBack
    {
        type            empty;
    }
    Top
    {
        type            noSlip;
    }
    In
    {
        type            fixedValue;
        value           uniform (1 0 0);
    }
    Bottom
    {
        type            noSlip;
    }
    Out
    {
        type            zeroGradient;
    }
    circle
    {
        type            noSlip;
    }
}


// ************************************************************************* //
