/*--------------------------------*- C++ -*----------------------------------*\
| =========                 |                                                 |
| \\      /  F ield         | OpenFOAM: The Open Source CFD Toolbox           |
|  \\    /   O peration     | Version:  2412                                  |
|   \\  /    A nd           | Website:  www.openfoam.com                      |
|    \\/     M anipulation  |                                                 |
\*---------------------------------------------------------------------------*/
FoamFile
{
    version     2.0;
    format      ascii;
    arch        "LSB;label=32;scalar=64";
    class       volScalarField;
    location    "1974.5";
    object      p;
}
// * * * * * * * * * * * * * * * * * * * * * * * * * * * * * * * * * * * * * //

dimensions      [0 2 -2 0 0 0 0];

internalField   nonuniform List<scalar> 
808
(
-0.03401198163409618
0.04446756573940393
-0.01175380668094862
0.03695276568428329
-0.2982726989360761
-0.05506878944841473
-0.0150239090436935
-0.02386050150930105
-0.1961352076015932
-0.08348760440473908
-0.009645062015317538
-0.2531903316812729
-0.03059109578167396
-0.01346195920762913
-0.1244531430665484
-0.01405135997947087
-0.142543220310854
-0.01361863633956533
-0.01292113273007484
-0.0554185578001325
-0.006864397234372382
0.1171790460688005
-0.06243088843960704
-0.07134099665670891
0.1749005805644229
-0.09973831628501438
-0.1518537535727902
-0.02039646282166805
-0.01753015068476773
-0.02589969914245963
-0.02026225204290431
-0.0581802608091921
-0.02294810345891347
-0.01692031613547739
-0.09887294658809262
0.3449180857533909
-0.03927400312691189
-0.01676691880165118
-0.02281494139267436
-0.02656692555400091
-0.08975479732661558
-0.1259980208004617
-0.05193376927557958
-0.02090865628452783
-0.05550995710107476
-0.04151598058631775
-0.0121950157944786
-0.1836400180665862
-0.02691492708084807
-0.2032617807836565
-0.01649922249356457
-0.06689245893826358
-0.06082851820729118
-0.01520858442792976
-0.193805340928915
-0.02823891971088324
-0.01091955736261438
-0.01524866761578184
-0.09985758915704664
-0.03963767400174902
-0.09977454109508825
-0.1254646839042243
-0.01390487204983969
-0.1271898542277081
-0.01708875182135738
-0.05173441668740227
-0.1622010678108663
-0.03556288571385741
-0.01517089619720461
-0.4395340116418446
-0.02651914952778785
-0.3016983227808617
-0.02161465148717361
-0.02054343187633505
-0.06382107594950294
-0.01778736984819127
-0.04238856965750055
-0.3651983483819845
-0.03592579251561427
0.03949646358309083
-0.09187312218617152
-0.01702544740617495
0.05701484124990606
0.04541616788879745
-0.01705679158023778
-0.05200450073528116
-0.5411229954145818
-0.2269075398555173
-0.05193308839227076
-0.1129630780741739
-0.05628335314389062
-0.1318332082832331
0.03910025663764748
-0.02560730081718872
-0.06191733535696706
-0.116178980285866
-0.03837778624946095
-0.05238171832218597
-0.1153952021169013
-0.1365721934181145
-0.05253397978488194
-0.04719583520200608
-0.05414500930483612
-0.04464056938814359
-0.05718897318366286
-0.07466746173616221
-0.04138631545903063
-0.01119540287582116
-0.04017886985460983
-0.1233986573633417
-0.05026551232831011
0.08185969488034461
-0.04230304731580447
-0.008244029231397321
-0.0277353148486742
0.1808350334922555
-0.03863694538929257
-0.2679874095183882
-0.02044527459895907
-0.05327302213522037
-0.03143376115428917
-0.04880885034577178
0.0136351025695214
-0.04834936138588548
-0.03575521643154075
-0.2182867386316709
-0.04078994140965252
-0.004922315346987763
-0.07545995715412718
-0.06893172865718528
-0.1423458555711241
-0.02090691026222797
-0.07477569463743458
-0.04322953288786872
-0.02281967340309637
-0.01547398562996338
-0.006364288149768277
-0.007280085986788446
-0.05229562102846637
-0.04953348688136769
-0.2175192403454297
-0.0561884793414499
-0.00839704473626285
-0.02221766192328556
-0.1476549934884968
-0.002799924203580807
-0.07593147890196726
-0.02164398416349084
-0.0009022634895551798
-0.01105312395480599
-0.03325972332528018
0.09378614284535039
-0.03846668609956455
0.2518530618356531
-0.26918911786824
-0.1326470342841181
-0.03751370181289353
-0.09097983931018562
-0.009414270122870586
-0.1136980685251327
-0.1781203531757861
-0.2197539688870691
-0.1763788734142872
0.05654270869234589
-0.06307986438349095
-0.02042112170430569
-0.06669455130655214
-0.1653209680882556
-0.02337340097780948
-0.01837309652707425
-0.0516772047810267
-0.01988634326209087
-0.006916757540363551
-0.106949984719518
-0.02309536862993498
-0.0447924158141382
-0.07021953601488792
-0.160252101623749
-0.03335196597935203
-0.3889475682645034
-0.01785728937780185
-0.226042663076223
-0.04405798953244178
0.03248448212931745
-0.1064234231953614
-0.01571756821870752
-0.04261087094994052
-0.103731603468435
-0.01768299824763661
-0.09496171091050003
-0.2078981690004189
-0.07141855964222132
-0.0238497035303497
-0.04779209508007321
-0.04254757372321507
-0.2046203133216293
-0.02206431097632666
-0.01909073720553674
-0.01128811406553553
-0.05642327984461833
-0.05034638658510058
-0.02238247743881639
-0.02079615516375655
-0.2407635230309261
0.1271993728544785
-0.205187761173841
-0.1953849522232409
-0.01178689682526497
-0.01139394625884364
-0.06693244403151327
-0.0101912130640399
-0.5036137483258696
-0.1201299277476258
-0.01920721450535989
-9.720945670055599e-05
-0.02394778273074478
-0.280673384346896
-0.2786835993121696
-0.007097797839229247
-0.01716364080655263
-0.001219336758265399
-0.3496077386832151
-0.02834441487070306
-0.02918145633733325
-0.01252978864900879
-0.01963201646501566
0.04943006185365733
-0.111315914880649
-0.01425471427626266
-0.02082596760764742
-0.04461637153959187
-0.01825238387341257
-0.01619012476556547
-0.0234584084830854
-0.06769542737657724
-0.01142608152640063
-0.01902238341433261
-0.008629474412379587
-0.0007341602654114155
-0.02948511940234129
-0.001786271529318553
-0.002141648761702109
-0.005813139777387051
-0.02559056445657924
-0.007960939356377842
0.001469949913415353
-0.00428284910976051
0.001378545040713716
0.002529060266788272
-0.008923054559389456
-0.1392724349187474
-0.00296897720364505
-0.001401511468648053
-0.04814174064905208
-0.02158128632039871
-0.0241765976383995
-0.01429527060036874
-0.006186050275794896
-0.02091777550613366
-0.03928807207526815
-0.01425053252566094
-0.01290574554251955
-0.01141827520377304
0.008768010541029861
-0.01012012904426057
-0.01189121549621581
-0.01151959717858872
-0.01055541281443105
-0.01035925592200076
-0.01214950078651525
-0.01388588072163809
-0.302810068645394
0.05947448209814384
-0.01585992689262005
-0.01523699762885549
-0.01287890013990923
-0.01182766285692295
-0.00870521456232325
-0.09646684239106665
0.01230224281898354
-0.01367031645368714
-0.01411436180741718
-0.01060911808618496
-0.05153106886477554
-0.01021505776876092
-0.0135439082653781
-0.01016219098789261
-0.0002901784327423716
-0.01093775292586248
-0.01218965017263051
-0.02454821468047217
-0.01562642357876618
-0.01190864152963643
-0.01354135574091026
-0.007475789959239816
-0.01211106039860887
-0.01171832190123239
-0.05892479063918771
-0.01342345018640163
-0.01132499634725093
-0.008921119668267275
-0.01501971825453338
-0.01365630723000333
-0.01562374622527612
-1.366955791908209
-0.09978823196181906
-0.01327346853185327
0.02624461938417649
-0.1618462375671786
-0.09150160615201523
-0.01200338070855829
-0.01406125783862239
-0.2361662533474143
-0.02887303988746453
-0.01835875406019719
-0.01165311782360954
-0.0199203584553018
-0.0101954042919665
-0.03077235193900146
-0.4098504891199758
-0.01241032529189525
-0.01410356673617743
-0.004668925258233103
-0.01127617143043075
-0.01071998469245103
-0.01408469350376947
-0.006740206802975668
-0.02660761510785809
-0.01168866216041464
-0.170265869067026
0.01873902274791743
-0.007456288926086624
0.004083026115758337
0.01356051812828337
-0.04824704863294716
0.02832139883874538
-0.01335854236800071
-0.1326419762281861
0.2827703559254245
-0.007423166256646688
-0.01361393922712132
-0.008168709864356759
-0.03264164016237558
-0.1246478642172929
-0.01222403346188762
-0.01212227376924057
-0.01686859694942229
-0.01353264542743655
-0.0413616194115066
-0.2182886211627896
-0.01013939177032527
-0.04282945003437583
-0.0390908895439427
-0.1735222378093863
-0.1594085169427005
-0.13490298087992
-0.2291742101351612
-0.005561112547541571
-0.02096063910653838
-0.01428097144373085
-0.01300793528896428
-0.03337608738023752
-0.02449925562741968
-0.01423584062508239
-0.01489410236468064
-1.07145994739614
-0.006005034452296127
-0.01326074498068359
-0.01831050683104018
-0.02438444948627504
5.40315713610591e-05
-0.01485085815041732
-0.0259548406946445
-0.1504022006575474
-0.01360693763737599
-0.02186669704176859
-0.01396156152382944
-0.001323960321312564
-0.1779556485562968
-0.01279680389469411
-0.1463117137122659
-0.01582103623282241
0.003225039284874428
-0.01447000764766007
-0.02366499948022725
-0.01567619681266126
0.005106239899281395
-0.272051578673453
-0.02606269868297501
-0.01616762669397083
-0.004307994389061056
-0.0100564309596177
-0.02980144124021646
-0.01408125148897865
-0.02061475694998115
-0.02092863433955681
0.01468765531956624
-0.09844122041422979
-0.02158404711305936
0.009358346683360148
-0.0557597742609783
0.1736792064695523
-0.1053593853203744
-0.3163783044321041
-0.03088164061185905
-0.02567595711933558
0.1511467831169788
0.07791103479093089
-0.003681855496553554
0.05024291742789312
-0.01524215559190968
-0.01397272629134372
0.002472466309164179
0.009273693690174542
-0.06538454112030712
-0.005730704113050918
-0.0565221385506841
-0.02243648431258032
-0.01572764583470224
-0.03653648774554252
-0.03291492202518744
-0.006655795351327344
-0.01504076109770149
-0.03732164918151893
0.03579369962350457
-0.03879871550106275
-0.01391873541855194
-0.1185377287288495
-0.03157476108808111
-0.03933363192157963
-0.6701181647598808
0.01988148771490815
-0.01033728355701907
-0.005822935471986807
0.1652077457262494
-0.09028017588347853
-0.03539440306063334
-0.2431240515512194
-0.01618405895571108
-0.01632190583439205
0.07501930128030672
-0.1806482301815725
-0.2345448467453316
-0.1920298016230082
-0.678767344738718
0.002162965530176552
-0.01819418127499934
-0.01674097607761836
-0.08541420906265232
0.1185635542582343
-0.02093080985833642
-0.229442307158404
-0.03563104822918271
-0.006705785129240974
0.2806431960070596
-0.01113595993632405
-0.09152736872231011
-0.1519393840360437
-0.003476136861445322
-0.04104395754921243
-0.05234145769712698
-0.2012596085583425
-0.00814039801969743
-0.04038838377967153
-0.002656106889472297
-0.5449303009106392
-0.1939673242601317
-0.1781753955793537
-0.02304211060976819
-0.00790002138803687
-0.06137763039862287
-0.05693648227081518
-0.01385887088456301
-0.06888050618027138
0.004666785397354516
-0.01797201669474771
-0.09341593869133887
-0.2734337948423821
-0.007741514787392349
-0.02586309853487213
-0.02167923079724598
-0.07560599615542798
-0.08944591151299636
-0.0890853588374637
-0.01204475269160835
-0.9152797497620151
0.1621554787267961
-0.07925407945446428
-0.2497022815028073
-0.0417177209726179
-0.01003554266198054
-0.2551936411527819
-0.1945363747137103
-0.03138001652913128
-0.1246086154085456
-0.01960179442761267
0.5637685358438641
-0.02456627585385488
-0.222679852507874
-0.02543491414344514
-0.005440357891115363
-0.01163295342918242
-1.24352794756373
-0.1800482069727483
-0.2281452004715509
0.005246782287023116
-0.03861068962910346
-0.2466542025432654
-0.06649720012499803
-0.05168141733555216
-0.1455436928743747
-0.1817169935172765
-0.06921902712358616
-1.218091861808221
-0.1486608663225509
-0.5324269274458122
0.07965308676797937
-0.006072944089657761
-0.02137803232159809
-0.04399459897395856
-0.03864556161688062
-0.02827556590084635
-0.1289686546309511
0.08128326858523413
-0.002091814264873748
-0.009963788959817133
-0.5707821368327961
-0.8540444163822004
-0.1786164997401332
-0.008200564580475236
-0.1339583634441928
0.0007389442575234188
-0.0001454565435599111
-0.002181853125092159
-0.06051395650756278
-0.2345676088704019
-0.01328389001185081
-0.1200387526418614
-0.1576611233974958
-0.01316993225622387
-0.03496108335035722
0.0265313318731717
-0.0582106233172667
-0.07124880430237306
-0.4963666956127814
-0.214348339189299
-0.07952897400375498
-0.07470886751651634
-0.01961678810725613
-0.1214173394051545
-0.156303595392064
-0.07664184305183937
0.02296818156358363
-0.08627863903739819
-0.04964197432462825
-0.01487707911292359
-0.1077170624487728
-0.2777239329640158
-0.058664078813769
-0.01820328871868403
-0.0005834967842422199
-0.01001694949890845
-0.01083107030737637
-0.2256948863430559
-0.01511890460480848
-0.217699888210669
-0.0102973667730325
-0.07235986856699833
-0.004388625663677448
-0.02325313954901973
-0.3866479821064371
-0.9230669943317352
-0.01131344706908646
-1.040140487091441
-0.6057662593666368
-0.01047292756233515
-0.6640204621246215
-0.1843673169777908
-0.005947956313498097
-0.1274198991279876
-0.01668514455124596
-0.1245798235348356
-0.06543099177873034
-0.08113669612742307
-0.005086745911182616
-0.002304964063065501
-1.347869586991241
-0.01146661825881153
-0.1782102035910895
0.0007940074714366474
-1.003363034696102
-1.246586803494601
-0.0790049259468014
0.0168247890892358
0.1646032951635823
-0.004487624782949595
-0.02303483999863444
-0.004191806461017799
-0.2463866578620249
0.3656913818487325
-0.04165798794854768
-0.2133157402868563
-0.01494638693680172
-0.6481625768280724
-0.07281554145448778
0.1887196968036224
-0.2935884861779067
-0.05035647410720881
-0.06969763743071933
-0.0158517501193517
-0.02161414439667149
-0.5869565859001852
-0.1487762365876799
-0.08923513025544243
-0.1236755328963691
-0.5500068984833626
-0.04481550033979163
-0.9003360758774391
0.0006445007028620685
-0.2420082264046964
-1.057676159919644
0.1632081860859531
0.2890729451647334
-0.1811692649993654
-0.1889992997680115
-0.2144995670262239
-0.06656752178579793
0.02283031855248104
0.04357443756430519
0.003181904793337299
-0.1638061181370646
0.02613361804486685
-1.367573829401864
-0.08644170572734328
-0.4784948730801037
-0.3350284100399165
-0.2114027051244601
-0.1796588677943368
-0.01691812687556355
-0.015445996196738
-0.1029915754648054
0.1748097120306945
0.3843637335670699
-0.2005482130697893
-0.1432958571043372
-0.2218323592708514
-0.06317525278148546
-0.1537534369973459
-0.1680088169224223
-0.1270953983591495
-0.12110606018045
0.4632205963625612
-0.2767242901894478
0.4341028807627994
-0.5925167509664748
0.07286689077193342
-0.1954251118098795
-0.06722112956288559
-0.07712468614672437
-0.8901597801540434
-0.2143184810816957
-0.1930142163912213
-0.3519575636123087
-0.4636689074171598
0.5699673498860655
-0.2139275062645564
0.002198060769656411
-0.06798810458786479
0.3460917568735762
-0.03545267320475223
-0.1305672102607547
-0.1817486520794265
-0.06341664358768498
-0.0164865777192023
-0.1995534166198904
0.1983702974677897
-0.01289612838247115
-0.09783125621648282
-0.1747350263107694
-0.3210774142403457
-0.3091010277957831
-0.07057755691268196
-0.01005372763411082
-0.08227711593683605
-0.6478153726082159
-0.676816557625662
-0.3315937165148453
-0.05860033514129487
-0.05002329798028196
-0.02491692044053048
-0.0693157432003623
-0.05561281297232482
-0.3645614294517476
-0.9653571104711359
-0.01010465445717573
-0.08449664902657661
-1.147128141195766
-1.042148080216132
-0.1095433152390918
-0.04093864069721753
-0.068321074875017
0.3880298631210372
-0.3397256230284874
-0.04902323424456038
-0.6049911519016744
-0.1266193418493888
-0.2491872030782928
-0.2142003158481787
0.4731821220138696
-0.6352295083456928
0.0771998161203034
-0.02888539934178907
-0.5662726856380658
-0.0536472262741769
-0.3666809535027796
0.1100668318761164
-0.1925430504839444
-0.06082505814699789
-0.1345296306015373
-0.3568422427560701
-0.08338645998561171
0.5161661854757644
0.08688229556818161
0.4691558491407439
-0.1016877366398961
-0.2049076415151064
-0.5146493410169711
-0.1347613691248545
0.02490360721137149
-0.05487667670321227
0.09967113753838809
-0.3011854145589112
0.2364944820575999
0.005218474687128197
-0.00289995949705519
-0.5080143034237193
-0.1822954886829465
-0.08365106953478267
0.5816521954928636
0.1395755786754809
0.3421473812086274
0.2253899479073371
-0.5674299692682245
-0.1915863512986852
-0.2256642451624431
-0.2222117643819133
-0.06156424588343945
-0.6879063254323621
-0.189150625478744
0.3042853476341389
-0.189085062620401
-0.0114495278380433
-0.1639004539138128
-0.01112301742729903
-0.1628209559121168
-0.4426499683287961
-0.07585516629727386
-0.2059872177856509
-0.07200138308788101
-0.09195203338007518
-0.1408877809422473
-0.07218634457298492
-0.4472923876467385
-0.4098483186495415
-0.02354828802329558
-0.07681921627966687
0.3308482818443571
-0.2504367251842194
-0.178265070744661
0.523656861376113
-0.2016327963573754
0.02111692139831302
-0.454208004458706
0.05181110529450472
-0.06010962633442713
-0.1390451801198758
-0.5899617813060801
0.1578181132943724
-0.5749225309026122
-0.5400130716636764
-0.1017063620789977
-0.5128615644181493
-0.03655949611229328
-0.1439497519090782
-0.4152867043192448
-0.01612034109067224
0.2885675230604499
0.4900469312169333
-0.1632025930957812
-0.005971816976974952
-0.08470591273881334
0.5250733673547714
-0.03260362180786455
-0.4439018199075554
-0.03221254330268046
0.4622304847792597
-0.01665692019179164
-0.5490136802379645
-0.2483705997208329
0.1782761171888362
-0.3140004921906696
-0.1816951983638309
0.0475276617694201
0.03196540888136625
0.0562317615743624
-0.3028182661269537
-0.1601922124302994
0.4128677130275503
)
;

boundaryField
{
    FrontBack
    {
        type            empty;
    }
    Top
    {
        type            zeroGradient;
    }
    In
    {
        type            zeroGradient;
    }
    Bottom
    {
        type            zeroGradient;
    }
    Out
    {
        type            fixedValue;
        value           uniform 0;
    }
    circle
    {
        type            zeroGradient;
    }
}


// ************************************************************************* //
