/*--------------------------------*- C++ -*----------------------------------*\
| =========                 |                                                 |
| \\      /  F ield         | OpenFOAM: The Open Source CFD Toolbox           |
|  \\    /   O peration     | Version:  2412                                  |
|   \\  /    A nd           | Website:  www.openfoam.com                      |
|    \\/     M anipulation  |                                                 |
\*---------------------------------------------------------------------------*/
FoamFile
{
    version     2.0;
    format      ascii;
    arch        "LSB;label=32;scalar=64";
    class       volScalarField;
    location    "1974.5";
    object      yPlus;
}
// * * * * * * * * * * * * * * * * * * * * * * * * * * * * * * * * * * * * * //

dimensions      [0 0 0 0 0 0 0];

internalField   uniform 0;

boundaryField
{
    FrontBack
    {
        type            empty;
    }
    Top
    {
        type            calculated;
        value           nonuniform List<scalar> 
15
(
142.2737824065011
133.5514841510236
138.0624010759753
144.3834789898634
159.7597447736796
131.3666244252227
140.1082567306726
135.3397350209382
153.4373158451567
135.735741881024
136.0794188407972
136.7801663109043
125.2392515423941
132.9018180958837
123.9514833092011
)
;
    }
    In
    {
        type            calculated;
        value           uniform 0;
    }
    Bottom
    {
        type            calculated;
        value           nonuniform List<scalar> 
15
(
155.5672356929087
158.1120817524606
141.1075924033711
142.0803715357212
141.1900074510565
148.4595535590951
142.7168678553145
143.1683798545857
143.4225613028195
134.0664906994259
125.7393615273705
141.5618957747099
122.412389838127
123.4897168759606
124.1458635495818
)
;
    }
    Out
    {
        type            calculated;
        value           uniform 0;
    }
    circle
    {
        type            calculated;
        value           nonuniform List<scalar> 
32
(
56.15950407703547
21.70178569256188
65.22026600065742
25.88277627162752
20.05932213307887
56.29143680089631
56.6724956292266
24.03590125545147
22.08599768792397
65.44527532150902
39.97978906941928
62.93512157149751
50.53975964234652
16.2033628916295
22.79336006285729
19.41090501588102
39.16570774569686
59.77285270484582
61.10988097125583
26.59962642412976
65.81869630064826
63.72547793590228
63.08554131333469
59.82063000520112
64.19535545519454
46.09639438897734
66.47161893939614
32.26075925170841
37.83468070276822
55.63448922993139
21.45171960488473
43.02796036906295
)
;
    }
}


// ************************************************************************* //
