/*--------------------------------*- C++ -*----------------------------------*\
| =========                 |                                                 |
| \\      /  F ield         | OpenFOAM: The Open Source CFD Toolbox           |
|  \\    /   O peration     | Version:  2412                                  |
|   \\  /    A nd           | Website:  www.openfoam.com                      |
|    \\/     M anipulation  |                                                 |
\*---------------------------------------------------------------------------*/
FoamFile
{
    version     2.0;
    format      ascii;
    arch        "LSB;label=32;scalar=64";
    class       surfaceScalarField;
    location    "20";
    object      phi;
}
// * * * * * * * * * * * * * * * * * * * * * * * * * * * * * * * * * * * * * //

dimensions      [0 3 -1 0 0 0 0];

oriented        oriented;

internalField   nonuniform List<scalar> 
1171
(
-0.9279233108639913
0.9279233109058896
0.7871152369232874
-1.098596746095872
0.311481509031412
-0.1956286420143305
-0.7654421012343348
0.9610707432356235
0.07207669280735063
-0.1173149198540021
-0.2117762175438306
0.3290911378381962
-0.7871152458094859
0.06934523206154601
0.7177700137361841
0.8107294409583685
-0.1774452090590325
-0.6332842318488059
0.8740129393284348
-1.043116265641006
0.1691033262763088
-0.2847130003231787
-0.09784197113886467
0.3825549711200305
-0.03602984311781291
0.5483722687516532
-0.5123424255568392
-0.5051326508868207
0.8275603119783614
-0.3224276610854339
-0.4020279253877034
1.045394571024046
-0.1713816313766304
0.3960829499514786
0.04819974068383766
-0.4442826897022002
1.046118907328063
-0.0007243366524194795
0.4460345873998576
-0.04995163444836649
1.056640158619507
-0.01052124720771057
0.5767722052817708
-0.7724008532826557
-0.7243266614933348
0.5570821264656027
0.1672445350964585
0.220896239007159
-0.7260288832220543
0.5502628283434781
-0.9226712183641704
0.3724083907667041
-1.094169015243906
0.6863781291053934
0.4077908860277349
-0.5953417227292901
0.5593118736345801
0.01802637467902638
-0.2567459771150588
0.2387196034307984
-0.02464267045930816
-0.5227953499612303
0.5474380205442447
0.3998605603259719
-0.4977025376575187
-0.9186309744035834
0.9408984739460666
-0.02226749952476273
1.067362803921882
-0.01072264327296456
0.9349352382591585
-1.116554004939856
0.1816187667488864
1.066865639003281
0.000497169601271155
-0.6642944494189427
-0.06003221234957747
1.261184083750529
-0.8640789337632362
-0.3971051499925675
0.1482346700074268
-0.1090863480004578
-0.3257153585637477
0.4348017062812359
-0.2857397013681756
0.1911669712508884
0.09457272966210224
-0.5833118100153576
-0.5152849321925679
1.013545812891311
-0.07861057364501271
0.009883420103366493
0.8253626312342065
-0.8352460513725073
0.5713281606296506
0.6898559211992717
0.4392859173598708
-0.03056792541052166
0.4304284855568632
-0.8076370903564449
-0.1026381105012628
0.9102752009258348
0.5026063213922226
0.2536926660881595
-0.7562989874630023
0.003585475771859983
0.5294550042888057
-0.5330404796577727
-0.4898616523056677
-0.6043073600855748
-0.4228217780756889
-0.6937322268257863
-0.02742189611576116
0.2703290748303036
-0.2429071794791379
-0.9247687908019837
-0.005217046914810973
0.9299858376698333
0.307889386113894
0.07466557779272924
0.762127690562254
0.04860175399896356
-0.5330012024876742
-0.06234052241037468
0.04637829343760211
-0.8540153824396903
0.07600379136935517
0.8607767175674494
-0.9367805089635791
-0.3473935383017606
-0.04120479484271692
0.3885983330660244
-0.6823620316061613
-0.2424067622808801
-0.6289970740327295
0.7050008676709432
0.6085012472072603
0.2190590708828384
-0.5429103570847963
0.9461213715510195
-0.779359947583797
-0.1667614239987062
0.02289731583143546
-0.01345268905292735
-0.009444626081451322
-0.4029234335072817
-0.09477910432996252
-0.2418586329130017
0.8503598853307874
0.04692627122222192
0.3343953772944842
-0.3813216489071005
-0.4602647274966561
0.9628710522527664
0.6800408445168524
-0.7826789521786737
0.3184984869655358
-0.01603930684588647
-0.3024591800253391
0.9300341045058428
-0.9300341045233563
-0.7826923787834573
0.1110711950892796
-0.3228474164689194
-0.7499281945711677
0.7598116133942349
-0.09071251622179267
-0.1427319325751672
0.2334444482620265
0.8648167798297945
-0.039454150916565
1.054125392684175
-0.8004327211328679
0.1860525897796552
-0.3156242375628247
0.1295716479138999
0.8590482376502016
-0.09692054660978475
-0.6117068654037575
-0.03934264590680914
0.6510495112851274
0.1238325916010035
-0.2310545106626155
0.1072219201101422
0.8054737427281141
-0.9829189492724453
-0.4351740276601949
0.3295280566212955
0.1056459714728148
0.5316846473188438
-0.5563273153492198
1.021770242182233
-0.4560929689451892
-0.5656772732427924
0.5989484659855236
-0.7193245021066154
0.06668185309106107
0.6526426486950112
0.1027492545977246
0.570367818393247
0.05475375061550448
-0.6251215688887671
0.1944106810043379
-0.08333948648606831
-0.4930817372627773
0.1456881998084788
0.0503508306299429
-0.8867708564170184
0.8364200258446364
-0.4745956135851451
-0.7133827149622766
0.04908826399799298
0.4365245659934314
-0.006096084041667341
0.2999444595131948
-0.8552690464308921
0.5553245871023503
0.4157140376093605
0.5842859624441052
0.5605919707017974
-0.5142136717835216
-0.365424753912211
0.03592237835971089
0.3295023730865744
0.6807831502306313
0.2492509540361182
-0.5666328451699646
0.5702183203428619
0.1108092080570905
0.8748189809057182
0.01025775305987602
-0.6219646197140818
-0.7492846507518628
0.7996354829008927
0.5310251688195011
0.07137473547082633
0.3010625979875706
-0.3724373332948504
-0.167637250051389
0.4420853005120156
0.08736969604702396
0.8836071986987987
-0.8033530075635444
-0.080254191003477
0.6354364541257215
0.3106849169422696
-0.4303453292676618
0.5753168710836114
-0.503942134633008
0.4171476477633903
0.1331151875419092
-0.04692557859074979
-0.5887581377981811
-0.1385063091180279
0.727264446915329
-0.1494668749458322
-0.7805672322636349
-0.6110534767645575
0.3606224919644095
0.2504309838109364
0.6222372314673278
-0.6119794775868159
0.2383786247707638
1.011304123343251
0.0428212698338974
-0.7492846486597931
0.2225707827970451
-0.1996734732049248
0.6800408431790209
0.8020708213556028
-0.8020708214105284
0.8376825887590467
-0.8332795705403493
-0.004403018151681711
-0.4453764653545148
0.8610905034797454
-0.1476294026247762
-0.3454523372495942
0.7347160214879612
-0.6684952698753807
-0.06622075167083212
-0.7317207278027714
0.1429625895810864
0.138835950543103
-0.6718371531082379
0.7826789385653106
-0.9503161886698128
-0.3650351461789299
0.287967580797125
0.07706756448028036
0.1458251974885151
-1.009243635008197
0.863418437548986
0.4806885385531685
-0.04140262126163104
-0.3081849092612196
0.5864175879704496
-0.2782326785950078
-0.738057002005833
0.8838821975144676
-0.1571227164486633
0.733712143131966
-0.8371958534255776
0.1034837103266023
0.9727935857296122
-0.5410120709493695
-0.431781514773754
0.755145244928245
-0.06488249505792931
-0.03525502874568665
0.1879863448620588
-0.152731316538574
-0.7757232346762517
-0.844256641911712
0.07881453440558835
-0.7499281947647215
0.5140829649244381
-0.5552877626369245
0.0907245040274151
0.7176741498280218
-0.8083986537290868
0.7536876541054057
0.1742356743173916
0.5028898948908276
0.4971101050892807
-0.05294847221070865
-0.6055738843530249
0.6585223569194552
0.8881922265817218
-0.004585024543343151
-0.7551452449147076
0.7996354829626221
0.1911248925200505
-0.4478708665962455
0.0192511116882334
0.001246104062019748
-0.02049721224650798
0.5893725744515647
-0.4383974221182987
-0.1509751519389736
0.7177700190263352
0.01439754805707577
-0.1105444987895646
0.4376035682385913
0.1517690079364317
-0.0137466239121902
-0.006653386796755947
0.02040001015964975
-0.03393495789110675
-0.001320078900114752
0.2437987040430107
-0.2598379997317313
-0.9591935379023506
0.002060484455777043
-0.1595580549479072
-0.1212364438348166
0.09473978228607889
0.7210124249300034
0.7290169129360512
-0.1447309509088167
0.663552053981407
-0.572827551847938
-0.2118930855956493
0.3979456755665466
0.6952357338179146
0.02253428519041479
0.241647652084208
-1.074927220311693
-0.9503161902312589
0.3017933064742827
0.7598116119284022
-0.2087802296177957
0.06604830014152321
-0.723072910086945
0.9089155603620497
-0.1858426502546596
0.4163185461233542
-0.02772021926196938
0.7715375331739163
0.2806755000101346
0.3723381256133683
0.07369645095698989
-0.6586938866905721
0.6586938866717051
0.2148132108367998
0.6954619927752851
-0.05512165328216493
0.3895170335717411
0.3796800560776051
-0.01352985485278568
0.03278095597514607
0.4491883891185753
0.0315001469072056
-0.7380570026114497
0.5340755755243043
0.2006404488188984
0.3056354730971751
-0.1176491258909938
-0.6952357343956261
0.1796978281002976
0.7292177322055301
-0.01016702996962805
-0.813039960804316
0.8232069907685826
0.6962596670222885
-0.7920608414134833
0.09580117442971844
-0.7536876612008616
-0.1504761705163005
0.2114945878224211
-0.06101841808048977
0.07732878473692478
-0.1794589220509447
-0.1128974144946961
0.292356337359376
-0.006458729879625375
-0.007287901062846823
0.7058332393571395
-0.7160002764384545
0.8822485259637457
0.07882221169258637
-0.316694147528907
-0.5139537880012764
0.8306479353492652
0.1035654103719628
-0.1035654083308832
0.3238899646649888
0.4739726364109802
0.6230322384673069
-1.097004874783939
-0.1941343429579588
-0.5855063893866208
0.7796407323580155
0.01333108576224107
0.2201133700175273
0.3771009622598946
-0.253268358625172
1.012440677561151
-0.5384680379301683
0.6645172351108717
1.006311961345828
-0.3832797195323302
0.2294715558790422
0.8838821955519667
0.712500565657552
0.2128695637901157
0.7280289140115672
-0.7805672326519701
0.341306126831807
-0.2765106209781505
0.246143489674291
0.03036713056601421
0.8455670781612133
-0.008749553710841605
-0.8368175242315189
-0.7019793231575289
0.7024764951948367
0.5546235368798258
-0.7019793212431668
-0.712500565662507
0.7024764970539428
-0.03494818982242265
0.9044463173085938
-0.02219779460588092
-0.6807831407078494
0.6117942056448691
0.068988935063951
0.5392489281071929
0.5343973572251033
-1.073646285313903
0.4895603052188837
0.5228803735234502
0.5397432139081262
0.457437556549401
-0.9971807703924082
0.5042694678781077
0.5020424948444798
0.6117941991038105
-0.5243516462698506
-0.4604119603067674
-0.5549524332467102
-0.5258056044076946
-0.1195217078182768
-0.01233619475896163
0.01233619391388028
0.512381623689799
0.5199432939014605
-1.045748898106361
0.5747062583865139
-0.2736436612327813
-0.8838178650169536
0.3428057936815774
-0.6329727814970786
0.3905660182561633
0.002558868102142233
-0.8281656432754496
0.8256067751315781
0.4208319975953138
-0.01767313505330224
0.8632402120380539
-0.9456912168164295
-0.832524795157694
0.05469683406352376
0.7778279609914086
0.5663619477718169
-0.4405615249486362
-0.1258004228127662
0.6497340983870489
-0.7283446724226736
0.8834396924360046
-0.8311279783274031
-0.0523117143586685
-0.01037432131653945
-0.7929786833737337
-0.1097798297591495
0.7131291190969313
-0.6033492893290109
-0.9328804189558789
0.9225060979333408
-0.7298881899372676
0.69489322697708
0.03499496296186515
-0.8160755706309769
0.04056907949256774
0.7755064910655696
0.06172974225421016
0.04183566513928019
0.4330596470648268
0.06225151124149687
-0.8507973416696832
0.7885458305796956
-0.6429266502309449
0.589978181611695
0.8881309894772834
0.07042576931448992
-0.958556758743602
0.0556061920700053
-0.04777717183410018
0.377279551181472
-0.381409034525997
0.06578480002587926
0.841755527704188
-0.8391966561763743
-0.7372533641704757
-0.8174981521982869
0.0245194691236427
-0.1634885835676618
-0.8516167421663731
0.02048876976741323
0.626404480654545
0.03714757175487218
0.03307522068699087
0.533286734365245
-0.8097295200176977
0.8502985960296464
0.5656772713777058
-0.8458387736282659
-0.8624546510681578
0.04199166292824518
-0.03645439468246558
0.8412057441758054
-0.8047513495423174
-0.02600995897896449
-0.7737077613899735
0.5443375650980116
0.1519220987562828
-0.03147622224586932
0.8947164349643715
0.9772029308074661
0.861519972737018
-0.8410311997024175
0.1475554737102866
-0.147555472267937
-0.1187237484815662
-0.4833042950878882
0.04274277446641644
0.270512435299203
0.0312808708902749
0.3867356798859458
0.8687064740572439
0.005097336617494863
-0.01155607592864638
0.658603762142227
0.3413962378415762
0.7835653860744951
-0.5833118082078574
-0.7778984377854966
-0.8135009077148049
-0.6802090026037553
0.6802090025879799
-0.1677680081792295
-0.155079412279378
0.6014084647070269
-0.8119629339352
0.2105544692050049
-0.4936865956104083
-0.5682769740405378
0.2782896341560185
-0.9720218603055374
-0.9008176856338739
0.8485059793247567
-0.8181873874425061
0.8427068557606964
0.6484740951609941
0.1343991296823704
-0.7828732248275787
-0.7785059442897644
-0.1460260544610378
0.7241354221642754
-0.5781093676850285
0.03211120879461972
-0.01458177765819255
0.01832630369086174
-0.003744527062059237
-0.356434783246786
-0.1268695156456133
0.8796980965374271
0.7447898591404233
-0.2459224637401051
-0.4988673950075458
0.618989432792392
0.6852772186281554
-0.4704640062658829
-0.0005796710985532996
-0.285160028065081
0.02516234057167636
0.7459646608427626
-0.7711270015668824
-0.3235477671435291
-0.07270832839186468
0.07568554399210191
-0.95901465654019
0.1221971302422119
-0.6775638076780468
0.05190479175061571
0.6406653148591163
-0.6925701066164767
-0.7563472804186572
0.07878347274384961
0.5878063776728127
-0.6605147061457225
0.156898819938338
-0.3363577399148787
-0.7724968602200586
-0.006009084044010901
0.3712288504120124
0.6012039172413338
-0.02588704903137136
0.02251130136301123
-0.02251130071668416
-0.01898959335948921
-0.04979424915632438
-0.2267163812112279
0.02455189574472335
-0.01945453217816676
-0.7353492860052765
0.2793103934160687
0.6799431213777054
-0.6892670762237917
0.009323954672986532
-0.5958400923170319
0.6477448878890347
0.6529611540121099
-0.06515477748554771
-0.6311946676217873
-0.1251526102178838
-1.048639030334065
0.01107293714020925
0.1364825338591486
-0.7101869440373055
-0.7409744931552854
-0.7624130475307191
0.3653078958596879
-0.4121132287690005
0.4654785875416288
-0.0533653589491794
-0.6722592338884396
-0.03792771023795491
0.5049125081829661
0.7306804484161942
-0.2338535718368893
0.1126171271194818
0.9650237379478473
0.4459681995902156
0.1342333609881213
-0.5802015605157158
-0.6793091924461807
0.007049956629120498
-0.04504424614144753
0.03046248109804685
0.6362924043123928
-0.7747987128647807
-0.002028875585338559
0.002028875904643168
-0.600881578918779
0.6479738594796272
-0.04709228050822026
-0.6462339693781346
-0.1126789541177143
-0.6714374322800547
0.05455654050051958
0.6039658220829499
-0.1371450793582746
-0.8174634869453639
-0.5606322603374964
0.5662858778568735
-0.005653617796596329
0.6323829099263649
-0.6230589516988224
0.3222878691178624
0.2141750492041723
-0.5364629183209187
-0.1046820899032679
-0.6017189123322257
-0.09085119335052455
-0.1549133827103088
-0.5060757147155823
0.4040744066939019
-0.4988535095573416
0.1268248610599095
0.678111900266702
-0.804936761359746
0.5989484659871879
-0.3685873274269612
-0.04352589608744983
0.0802922195543443
-0.5863679318933138
0.5518027398704473
-0.04049757964163309
-0.5113051600836473
-0.31243669148268
0.3049643206226381
0.007472369961731265
0.4541681424340128
0.1205381167946379
0.05124224115444372
-0.3159584744343314
0.1568603506291355
0.1590981236282336
0.232592011007722
-0.0100212207463691
-0.2921799014145137
-0.3128842255071816
0.3620884039831478
-0.04920418065510706
0.786714366694899
-0.6277964480340322
-0.01843752112523279
0.4992796602137158
0.2804421209770816
-0.5263645851709033
0.5770312011597252
-0.5770312011702454
-0.2896930054153232
-0.5872517463151243
-0.2966345271457046
-0.5872517461149763
-0.5932488670049296
-0.8385063690522662
0.1700111027381274
-0.5850536804782175
0.8205791099319065
-0.003485020086796679
0.1188565636488713
0.4823473522727341
0.09672903478998665
0.1855647028684524
-0.03636952661120633
-0.1491951772861119
-0.0187677938479048
0.5936074134108804
-0.9456639521178472
0.4317101680147422
-0.002944129155442135
0.002448995468909108
0.0004951332191475835
-0.6432641447141161
-0.1316988494771521
-0.4671564691264765
0.6013898282254608
-0.5035628313347832
-0.325685514860445
-0.2606824307558715
-0.2711783055308682
-0.1119606801284645
0.1119606796848218
0.1525715039705737
0.05892308008270495
0.1966376368883923
0.4554573720828071
-0.5730247060985332
0.1058682403631526
0.2431993610007592
0.4662753097387814
0.5337246896261155
0.6412204278928864
0.08701294328100936
-0.005097300864453273
-0.08191564397020111
-0.2769060972555595
-0.540557389645194
-0.5502307554092019
0.114205306128106
-0.1261615022659812
0.01195619572177442
-0.1059899054408997
-0.3859499153135824
-0.04538033951410851
0.6493461445749766
-0.49854431794274
-0.1447198268049646
-0.3391382069045381
0.2921056176311465
0.1239151621565601
-0.6107552633855609
-0.2041375260685152
-0.261979259343754
0.002141242112423039
-0.4222422087348142
0.3228266046113772
0.09941560382631097
-0.09364596639593099
0.2916223161637084
-0.8959296742432875
-0.4578770364422941
0.6305783533401391
-0.7728516801416639
0.668169590198643
0.3417398627225889
-0.1253697534226808
0.225242530560681
-0.09987277639456399
0.02468594009871013
-0.5862649836912519
0.02931113842708464
0.5569538455010736
-0.9006915455870141
0.5469254339015164
-0.6656491824206066
-0.09715796863315579
0.1094939776080512
-0.1094939751560082
-0.3165381431140274
0.3629493004037899
0.01433025485014415
0.03041263404268041
0.05660032281307987
0.5051381188755233
0.665294700936343
-0.7455488898839794
0.03165874530068549
0.02352717787027117
-0.001015867641878487
-0.007100519010790265
0.007100518370895965
-0.4164230041754656
0.5369611230345503
0.01529570062686929
-0.01529570073752001
-0.7921910268050786
-0.06074896024992273
0.1224787093927602
-0.4557204583311875
0.5615887009961447
0.4512786017520363
-0.4983708853752957
0.1499106278912966
-0.1499106268105184
0.03397570572526201
-0.00119475456836586
-0.04186589982328132
-0.9726179063249172
0.5408363906202557
-0.4697883562495809
0.04183566781014585
0.514401051351917
0.03113185009458431
-0.5455329012571869
-0.6159499424426322
0.1174056240643982
-0.3296042133647369
0.01344079766653431
0.3161634164249983
-0.1547127483731962
-0.0791408115906224
-0.5407656751473481
-0.04549931347460755
0.136482532267885
-0.04056586513937679
0.03853699524696687
0.08117338970959176
-0.08117339269824024
-0.5366980291647589
0.4874938584436592
-0.4143707451444274
0.1613557727250234
0.6222096133068443
-0.09785420762209893
-0.004185001154455368
0.004185001020459925
0.5329571737274524
-0.07746853162451642
0.005928569920180708
0.02698855442355238
0.03473513817425523
0.6844834876029925
-0.7619520191143635
-0.6552642937387607
0.6368267703075845
-0.1068390775368564
0.3130442056168717
0.7454621116626067
-0.01898959499661702
-0.2672467879471696
0.149597654066042
-0.7440510379729536
0.4842880870160733
-0.4241710065638126
-0.1015488973964834
0.003571887765934157
-0.01436955198925347
0.01945457593977907
0.4111802004387622
-0.1216531074984447
-0.3896520514450839
0.6287154389620347
0.01943673674102937
0.01071066223304357
-0.01071066216370192
-0.3542570863342482
-0.08124066002347359
-0.5605656414161199
0.5570806214905435
-0.2382671703950228
0.4647644735588236
-0.1513534181031947
0.7281256201322179
0.6723908892132806
-0.0405658645890288
-0.6154466635429143
0.5618463901505926
0.2892038334676441
-0.287021144888644
-0.002182689498921293
0.5431808014800591
0.0929572587375609
-0.03898724588735047
0.1967358019550234
-0.157748556542446
0.1201606352465448
-0.1201606378064956
-0.8579699810942223
0.002355157931393445
-0.1132981540059693
0.1402867095365792
-0.1319458150301408
0.1319458143414062
0.02352717197140903
-0.02317458695437849
0.6700933258775758
0.05912440576182904
-0.3230548626696315
-0.06289505301169808
-0.4711967069394215
-0.04993437366757707
-0.1516586236609662
0.1516586225631506
-0.04793994226123513
0.1433076187537034
-0.1433076178826488
0.1365896441362795
-0.1365896459580803
-0.3156754369907736
-0.1146698923334778
0.2265136255236084
0.1030144316312802
0.03476299640509534
-0.820986173637559
-0.1978940340594822
0.1702755080433147
0.02084939041526047
-0.265343399806504
0.1258090125378362
-0.1258090117744383
-0.4140613561164606
-0.08479215561988426
0.2364386337637651
0.002280973699377751
0.04060752406131057
-0.5431090861888017
0.5780572760187118
-0.02898858391961834
-0.01895135967889356
-0.02882928731050346
0.02763454113398697
0.006603023945078976
-0.1843560201168684
0.1777529961342604
-0.1083291224458775
-0.2280286179164854
-0.1447702192749004
0.144770218346158
0.07291248631577442
-0.07291248672747985
-0.01940005053074969
-0.1086596463933699
0.1280596975360897
0.2421539707207531
-0.182865044241886
-0.0279142227687322
0.02689836268122379
-0.1382430503611145
0.6257369088352026
-0.03904818528406011
0.4233456451763022
-0.04283173003870603
0.06323175072835036
-0.1534065976397927
0.1534065962117067
-0.6363380513144606
0.3088388193988262
-0.07936726311651449
-0.2346218195188121
0.003567312232517519
-0.1216747591693373
0.1622822823275636
0.1952694327432066
0.09708690896823741
0.09619543325253326
-0.06146029493918572
0.07262972249273862
0.04157558400645259
0.06389683321850727
0.1063786709857304
-0.09635992422377387
0.2089770336070735
0.01273953259345496
-0.115814464449599
-0.1009465084032567
0.09764866079878327
0.003297848692030168
0.012816514506166
-0.02339498789884919
0.03781661065185441
-0.03781661070789055
0.07506104323320328
-0.05484009968621242
0.05484009941900989
-0.2245486844302929
-0.05258271440500532
0.01142093450324859
-0.1030905885001993
0.0164290103716013
0.108371885883276
-0.1083718853774324
0.2946850364065787
-0.2715352478553908
0.1632061296667308
-0.05083976898341552
-0.2206954786583079
-0.01749424051671458
0.0174942408062744
0.3673754681815377
0.2852671876609471
-0.5275685216585018
-0.09399520021564824
-0.03216630259438506
0.5287312468250045
0.2133246985931663
-0.170159879169068
-0.3804827301699236
0.07652807195628006
-0.1477524119954363
0.1872984198900681
-0.03954600814602608
-0.06679629388452034
0.06679629420429614
0.8219901836203157
-0.5606525067538173
-0.005081072360074162
0.01789758607450922
-0.01998514030049202
-0.2867782592485134
-0.01749860627963849
-0.01282440023864205
-0.13184573312217
-0.5720129038816824
0.5559888608816036
-0.569284127851073
-0.006888407387990103
0.1030189412220337
-0.001747968467285839
0.01681694902494076
-0.167737552357929
-0.3365354593707957
0.233444870974089
-0.05449592284819951
0.03509587384899947
0.1317397652752865
0.1732245550169903
0.3368013059236422
0.2766269017844371
-0.2783748697778188
-0.06240951044267966
-0.1550384963296224
-0.2211810165119106
0.0748182937029685
-0.01092146171352408
0.2140766011319586
-0.197259651670031
-0.08629204943267239
0.1589217699018639
-0.355109078735903
0.2085883239367077
-0.1921593134869049
0.08960999965495482
-0.4792620543509221
0.1744740202913659
0.1699778554151985
-0.2562698994177948
0.07280045042408202
-0.1943822603514371
0.1768836536887119
0.01743712642751263
0.1414846445722938
-0.03954441104016507
0.06610715607695991
0.4668500172140723
0.02032237084973743
-0.07878279624456042
0.05508265636888796
0.1259171620632359
-0.2607270228609737
-0.2308894938289789
0.5597129887154757
0.1577125969808084
0.07872603605365396
0.07546246924588827
-0.03091297215826504
-0.01113216671414641
0.008949473224352557
-0.03278994161595963
0.1711529393007205
-0.1780413462681498
-0.05932821795850074
0.02181728673019084
-0.1468400192587615
-0.05289761131892368
0.1496488273071755
0.2770919038512055
-0.03874286737013124
0.01650237482649454
-0.2557488273313335
-0.1317235281602407
0.2357626562654316
0.1789924914149453
0.1298463294612328
0.02191729250657608
0.08901151583981388
0.05217483201526701
0.4529632868317775
0.01603737378446199
0.09717177645888575
0.04371140237118376
0.07171071384506397
-0.1154221172938579
-0.2423013360135042
-0.2009097784350659
-0.01978569789977382
-0.2021701531132453
0.2755345297253948
)
;

boundaryField
{
    FrontBack
    {
        type            empty;
    }
    Top
    {
        type            calculated;
        value           uniform 0;
    }
    In
    {
        type            calculated;
        value           uniform -1;
    }
    Bottom
    {
        type            calculated;
        value           uniform 0;
    }
    Out
    {
        type            calculated;
        value           nonuniform List<scalar> 10(1.029303518652203 1.063600574637972 1.015364393580339 1.027149839943677 0.9918349149582472 1.02784809909449 1.032324916552118 1.061963569636242 0.8667242028011511 0.8838862733262811);
    }
    circle
    {
        type            calculated;
        value           uniform 0;
    }
}


// ************************************************************************* //
