/*--------------------------------*- C++ -*----------------------------------*\
| =========                 |                                                 |
| \\      /  F ield         | OpenFOAM: The Open Source CFD Toolbox           |
|  \\    /   O peration     | Version:  2412                                  |
|   \\  /    A nd           | Website:  www.openfoam.com                      |
|    \\/     M anipulation  |                                                 |
\*---------------------------------------------------------------------------*/
FoamFile
{
    version     2.0;
    format      ascii;
    arch        "LSB;label=32;scalar=64";
    class       volVectorField;
    location    "1";
    object      cellDisplacement;
}
// * * * * * * * * * * * * * * * * * * * * * * * * * * * * * * * * * * * * * //

dimensions      [0 1 0 0 0 0 0];

internalField   nonuniform List<vector> 
256
(
(0.002168 -0.00336707 0)
(0.00424138 -0.00617485 0)
(0.00647136 -0.00831176 0)
(0.00898763 -0.00969509 0)
(0.0118312 -0.0102361 0)
(0.0149082 -0.00982282 0)
(0.0179637 -0.00838388 0)
(0.0205773 -0.00595403 0)
(0.0098054 -0.014799 0)
(0.0158861 -0.0220263 0)
(0.0224818 -0.0271713 0)
(0.0298829 -0.0301198 0)
(0.0380808 -0.0306368 0)
(0.0467174 -0.0284941 0)
(0.0550213 -0.0235874 0)
(0.0618629 -0.0161487 0)
(0.0204197 -0.0301615 0)
(0.0302339 -0.0403753 0)
(0.0409678 -0.0472141 0)
(0.0529533 -0.0505738 0)
(0.0660314 -0.0501127 0)
(0.079499 -0.045522 0)
(0.0920852 -0.0367683 0)
(0.102149 -0.0243888 0)
(0.0339173 -0.0489653 0)
(0.0472419 -0.0607886 0)
(0.0618921 -0.0680897 0)
(0.078133 -0.0707993 0)
(0.0955548 -0.0684754 0)
(0.113092 -0.0608178 0)
(0.129017 -0.047933 0)
(0.141405 -0.0307479 0)
(0.050226 -0.0706644 0)
(0.0668701 -0.0827841 0)
(0.0852054 -0.0893998 0)
(0.105318 -0.0904693 0)
(0.126514 -0.0855065 0)
(0.147352 -0.0742675 0)
(0.165778 -0.0570846 0)
(0.179545 -0.0352296 0)
(0.0693138 -0.0946668 0)
(0.0891065 -0.105852 0)
(0.110876 -0.110723 0)
(0.13444 -0.109255 0)
(0.158782 -0.100957 0)
(0.182137 -0.0857137 0)
(0.202263 -0.0641529 0)
(0.216601 -0.0378193 0)
(0.0912154 -0.120356 0)
(0.114004 -0.129484 0)
(0.138895 -0.131597 0)
(0.165427 -0.126773 0)
(0.192272 -0.11455 0)
(0.217393 -0.094992 0)
(0.238339 -0.0689938 0)
(0.252615 -0.0384235 0)
(0.116028 -0.147053 0)
(0.141649 -0.153095 0)
(0.169329 -0.151553 0)
(0.198307 -0.142626 0)
(0.226934 -0.125953 0)
(0.25301 -0.101842 0)
(0.273981 -0.0714404 0)
(0.28764 -0.0368761 0)
(0.143937 -0.174008 0)
(0.172154 -0.175956 0)
(0.202243 -0.169954 0)
(0.233044 -0.156271 0)
(0.262692 -0.134731 0)
(0.288867 -0.105905 0)
(0.309184 -0.0712089 0)
(0.32178 -0.0329054 0)
(0.175224 -0.200347 0)
(0.205738 -0.197255 0)
(0.237701 -0.186003 0)
(0.269613 -0.166988 0)
(0.299444 -0.140282 0)
(0.324933 -0.106713 0)
(0.343972 -0.0678918 0)
(0.354985 -0.0261505 0)
(0.210335 -0.225006 0)
(0.242719 -0.215965 0)
(0.275903 -0.19874 0)
(0.308078 -0.173919 0)
(0.337198 -0.141861 0)
(0.361162 -0.103612 0)
(0.378207 -0.0609391 0)
(0.387067 -0.0161374 0)
(0.249911 -0.246641 0)
(0.283584 -0.230733 0)
(0.317116 -0.206863 0)
(0.348519 -0.175862 0)
(0.375844 -0.138408 0)
(0.397316 -0.0957275 0)
(0.411591 -0.0496089 0)
(0.417858 -0.00216991 0)
(0.294792 -0.263111 0)
(0.328831 -0.239461 0)
(0.3615 -0.208422 0)
(0.390778 -0.171137 0)
(0.415045 -0.128538 0)
(0.432983 -0.0818819 0)
(0.443712 -0.0328436 0)
(0.446853 0.0166944 0)
(0.345869 -0.271171 0)
(0.378811 -0.238919 0)
(0.408776 -0.200497 0)
(0.434126 -0.157257 0)
(0.453803 -0.110204 0)
(0.46708 -0.0605258 0)
(0.473499 -0.00954198 0)
(0.473016 0.0413375 0)
(0.403365 -0.265415 0)
(0.432593 -0.224469 0)
(0.457084 -0.179526 0)
(0.476203 -0.131627 0)
(0.489601 -0.0816207 0)
(0.497066 -0.030322 0)
(0.498523 0.0213703 0)
(0.494056 0.0725468 0)
(0.458612 -0.235949 0)
(0.479531 -0.189861 0)
(0.495832 -0.141944 0)
(0.507357 -0.0926605 0)
(0.513996 -0.0424847 0)
(0.515685 0.00810036 0)
(0.512408 0.0586074 0)
(0.504196 0.10855 0)
(-0.00278964 -0.0222798 0)
(0.00065499 -0.02258 0)
(0.00372064 -0.0213075 0)
(0.00581394 -0.0186684 0)
(0.00660381 -0.0151236 0)
(0.00608745 -0.0111619 0)
(0.00451481 -0.00716483 0)
(0.00226722 -0.00333261 0)
(-0.007005 -0.0661441 0)
(0.00264318 -0.0666769 0)
(0.0111529 -0.063232 0)
(0.0171466 -0.0563444 0)
(0.0198439 -0.0470648 0)
(0.0191773 -0.0365448 0)
(0.0156277 -0.0256827 0)
(0.00994229 -0.0149408 0)
(-0.00973715 -0.107994 0)
(0.00532689 -0.108333 0)
(0.0185238 -0.10297 0)
(0.0280194 -0.0927562 0)
(0.0327872 -0.0791157 0)
(0.0326901 -0.0635532 0)
(0.0282665 -0.0472722 0)
(0.0203705 -0.0308407 0)
(-0.0110501 -0.148022 0)
(0.00877385 -0.14783 0)
(0.0260615 -0.140785 0)
(0.0387514 -0.12799 0)
(0.0456978 -0.111077 0)
(0.0467162 -0.0917583 0)
(0.0423143 -0.0713637 0)
(0.0333356 -0.0504801 0)
(-0.0109365 -0.186342 0)
(0.0131 -0.185423 0)
(0.0340111 -0.17691 0)
(0.0496596 -0.162132 0)
(0.0588623 -0.142822 0)
(0.0614129 -0.120793 0)
(0.0577585 -0.0974229 0)
(0.0486971 -0.0732575 0)
(-0.00932865 -0.223124 0)
(0.0184613 -0.221322 0)
(0.0426461 -0.211595 0)
(0.0610808 -0.1953 0)
(0.0726056 -0.174275 0)
(0.0769932 -0.150339 0)
(0.0746772 -0.124948 0)
(0.0663992 -0.0985495 0)
(-0.00610492 -0.258477 0)
(0.025083 -0.255761 0)
(0.052254 -0.244957 0)
(0.0733323 -0.227512 0)
(0.0872408 -0.205323 0)
(0.0937363 -0.180137 0)
(0.0932317 -0.153462 0)
(0.0864798 -0.125719 0)
(-0.0010393 -0.292597 0)
(0.0332108 -0.288832 0)
(0.0630996 -0.276991 0)
(0.0867248 -0.258672 0)
(0.103081 -0.23573 0)
(0.111947 -0.209866 0)
(0.11365 -0.18249 0)
(0.109067 -0.154106 0)
(0.00612129 -0.325495 0)
(0.0431213 -0.320513 0)
(0.0755374 -0.307713 0)
(0.101642 -0.288712 0)
(0.120522 -0.26531 0)
(0.131966 -0.239143 0)
(0.136279 -0.211535 0)
(0.134406 -0.183002 0)
(0.0157306 -0.357095 0)
(0.0552076 -0.350794 0)
(0.0899944 -0.33707 0)
(0.118543 -0.317502 0)
(0.140029 -0.293805 0)
(0.154269 -0.267551 0)
(0.161548 -0.240013 0)
(0.162842 -0.211637 0)
(0.0282596 -0.387301 0)
(0.0699856 -0.379586 0)
(0.107015 -0.36492 0)
(0.137988 -0.344807 0)
(0.162181 -0.320855 0)
(0.179432 -0.294571 0)
(0.189992 -0.267179 0)
(0.194927 -0.239072 0)
(0.0444085 -0.415979 0)
(0.0881311 -0.406668 0)
(0.127268 -0.39096 0)
(0.16068 -0.370238 0)
(0.187727 -0.345944 0)
(0.20822 -0.319479 0)
(0.222394 -0.29205 0)
(0.231398 -0.264075 0)
(0.0649661 -0.442527 0)
(0.110352 -0.431412 0)
(0.151482 -0.414474 0)
(0.187389 -0.392966 0)
(0.217463 -0.368142 0)
(0.241512 -0.34121 0)
(0.259764 -0.31325 0)
(0.273259 -0.284757 0)
(0.0907731 -0.465891 0)
(0.137501 -0.452737 0)
(0.180521 -0.434313 0)
(0.218985 -0.411629 0)
(0.25232 -0.385759 0)
(0.280351 -0.357705 0)
(0.303169 -0.328438 0)
(0.32165 -0.298354 0)
(0.122326 -0.483902 0)
(0.169867 -0.468466 0)
(0.214433 -0.448275 0)
(0.255377 -0.423971 0)
(0.29225 -0.396296 0)
(0.324784 -0.366001 0)
(0.352936 -0.333795 0)
(0.377181 -0.299985 0)
(0.157447 -0.491129 0)
(0.204828 -0.473331 0)
(0.250236 -0.450975 0)
(0.293235 -0.424276 0)
(0.333409 -0.393491 0)
(0.370372 -0.358917 0)
(0.403769 -0.320886 0)
(0.433277 -0.279764 0)
)
;

boundaryField
{
    walls
    {
        type            cellMotion;
        value           uniform (0 0 0);
    }
    cylinder
    {
        type            cellMotion;
        value           nonuniform List<vector> 
16
(
(0.458612 -0.235949 0)
(0.479531 -0.189861 0)
(0.495832 -0.141944 0)
(0.507357 -0.0926605 0)
(0.513996 -0.0424847 0)
(0.515685 0.00810036 0)
(0.512408 0.0586074 0)
(0.504196 0.10855 0)
(0.157447 -0.491129 0)
(0.204828 -0.473331 0)
(0.250236 -0.450975 0)
(0.293235 -0.424276 0)
(0.333409 -0.393491 0)
(0.370372 -0.358917 0)
(0.403769 -0.320886 0)
(0.433277 -0.279764 0)
)
;
    }
    outlet
    {
        type            cellMotion;
        value           nonuniform List<vector> 0();
    }
    inlet
    {
        type            cellMotion;
        value           uniform (0 0 0);
    }
    frontAndBack
    {
        type            empty;
    }
    procBoundary0to1
    {
        type            processor;
        value           nonuniform List<vector> 
16
(
(0.0223028 -0.00278345 0)
(0.0661929 -0.006981 0)
(0.108075 -0.00969759 0)
(0.148114 -0.010996 0)
(0.186453 -0.010869 0)
(0.223235 -0.00925445 0)
(0.258593 -0.00602272 0)
(0.292704 -0.000961704 0)
(0.325595 0.00619815 0)
(0.357177 0.0157918 0)
(0.387366 0.0283103 0)
(0.416024 0.0444357 0)
(0.442555 0.0649827 0)
(0.465906 0.0907685 0)
(0.483907 0.12232 0)
(0.491129 0.157447 0)
)
;
    }
    procBoundary0to2
    {
        type            processor;
        value           nonuniform List<vector> 
16
(
(-0.00596224 -0.0205595 0)
(-0.0161736 -0.0618068 0)
(-0.0244309 -0.102065 0)
(-0.0308066 -0.141295 0)
(-0.0353025 -0.17942 0)
(-0.0379046 -0.216462 0)
(-0.0385139 -0.252477 0)
(-0.0369716 -0.287502 0)
(-0.0329941 -0.321656 0)
(-0.0262344 -0.354874 0)
(-0.0162019 -0.386979 0)
(-0.0022219 -0.417792 0)
(0.0166687 -0.446811 0)
(0.0413262 -0.472995 0)
(0.0725483 -0.49405 0)
(0.10855 -0.504196 0)
)
;
    }
}


// ************************************************************************* //
