/*--------------------------------*- C++ -*----------------------------------*\
| =========                 |                                                 |
| \\      /  F ield         | OpenFOAM: The Open Source CFD Toolbox           |
|  \\    /   O peration     | Version:  2412                                  |
|   \\  /    A nd           | Website:  www.openfoam.com                      |
|    \\/     M anipulation  |                                                 |
\*---------------------------------------------------------------------------*/
FoamFile
{
    version     2.0;
    format      ascii;
    arch        "LSB;label=32;scalar=64";
    class       surfaceScalarField;
    location    "1";
    object      meshPhi;
}
// * * * * * * * * * * * * * * * * * * * * * * * * * * * * * * * * * * * * * //

dimensions      [0 3 -1 0 0 0 0];

internalField   nonuniform List<scalar> 
480
(
4.02263e-05
-0.000539683
-4.25104e-05
7.69124e-05
-0.000762158
0.000117226
-0.00104305
0.000158781
-0.00130884
0.000192499
-0.00153927
0.000223717
-0.00169122
0.000257121
-0.00173778
-0.00166742
0.000183684
-0.0013051
-0.000192364
0.000283065
-0.0017048
0.000390967
-0.00216917
0.000503071
-0.00257584
0.000599458
-0.00291541
0.000684212
-0.00313274
0.000772567
-0.00316815
-0.00300241
0.000442693
-0.002209
-0.000463573
0.000586147
-0.00274482
0.000737552
-0.00331343
0.000898964
-0.0037789
0.00104359
-0.00415207
0.00116625
-0.00436945
0.00129195
-0.0043532
-0.00406971
0.000817593
-0.00318027
-0.000854894
0.000995414
-0.00381849
0.00117341
-0.00443846
0.00135982
-0.00488997
0.00153325
-0.00520545
0.00167972
-0.00535556
0.00182685
-0.00525137
-0.00484123
0.00130743
-0.00414577
-0.00136209
0.00151538
-0.00485303
0.00170971
-0.00547896
0.00189938
-0.00587934
0.0020781
-0.00609868
0.00223655
-0.00614518
0.00238769
-0.00593521
-0.00539278
0.00191634
-0.0050475
-0.00198689
0.00214352
-0.0057794
0.00234927
-0.0063748
0.00252708
-0.00670321
0.00268527
-0.0067878
0.00283684
-0.00668811
0.00297274
-0.00635463
-0.00570159
0.00265426
-0.00584432
-0.00273887
0.00288194
-0.00655507
0.0030873
-0.00706925
0.00324668
-0.00730403
0.00336957
-0.00726821
0.00348336
-0.00702363
0.00357763
-0.00655328
-0.00579567
0.00353345
-0.00650085
-0.00363303
0.00373655
-0.0071351
0.0039199
-0.00751779
0.00405745
-0.00764744
0.00413582
-0.00750879
0.00417845
-0.00713597
0.00420346
-0.00653361
-0.00568525
0.00455337
-0.00693432
-0.00467813
0.00470086
-0.00744506
0.00483193
-0.00765638
0.00493495
-0.00766139
0.00496302
-0.00744287
0.00491772
-0.00698811
0.00485992
-0.00628983
-0.00537214
0.0056989
-0.00705581
-0.00586741
0.00576309
-0.00741744
0.00580647
-0.00744812
0.00584094
-0.00731434
0.0058104
-0.00703494
0.0056911
-0.00655902
0.00555557
-0.005842
-0.00491656
0.00695064
-0.0068421
-0.00718729
0.0069083
-0.00703685
0.00682568
-0.00689328
0.00673628
-0.00661717
0.00662495
-0.00625756
0.00645342
-0.00577808
0.00626216
-0.00511758
-0.00429119
0.00826457
-0.00619525
-0.00859831
0.00808424
-0.00622466
0.00784803
-0.00592474
0.00760691
-0.00553506
0.00738544
-0.00510899
0.00716302
-0.00463973
0.00694596
-0.00409235
-0.0034372
0.00959127
-0.00506101
-0.0100578
0.00922543
-0.00492916
0.00882569
-0.00452158
0.00843347
-0.00408999
0.00808689
-0.00366682
0.00780194
-0.0032605
0.00756836
-0.0028459
-0.00237553
0.0108894
-0.0034196
-0.0115156
0.0103034
-0.00322262
0.00971331
-0.00282883
0.00915936
-0.00244736
0.00869138
-0.00210267
0.00833435
-0.00180114
0.00807528
-0.0015131
-0.00121371
0.0119266
-0.00128773
-0.0127393
0.011102
-0.00115767
0.0103158
-0.000959067
0.00962218
-0.000767617
0.00906226
-0.000596448
0.00865064
-0.000444119
0.00838376
-0.000300764
-0.000160552
0.0109911
-0.0120063
0.0100415
0.00921222
0.0085341
0.0080218
0.00767997
0.00750827
0.000383793
-0.0011393
0.000434419
-0.000844584
0.000479686
-0.000541786
0.000471412
-0.000303025
0.000367511
-0.000201728
0.000239249
-0.000188498
0.000120844
-0.000197048
-0.00024834
0.00112264
-0.00204633
0.00125422
-0.00150207
0.00139722
-0.000953269
0.00137771
-0.000549249
0.00108578
-0.000400377
0.000747038
-0.000390126
0.000415535
-0.000411455
-0.000522889
0.00180689
-0.00273931
0.00198333
-0.00200047
0.00224437
-0.00127288
0.00222016
-0.000767618
0.00176117
-0.000614912
0.00129619
-0.000604997
0.00080447
-0.000623743
-0.000793307
0.00244294
-0.00322633
0.00261826
-0.00234841
0.00290672
-0.00156526
0.00287164
-0.00109594
0.00236859
-0.000919917
0.00187052
-0.000833675
0.00127907
-0.000825054
-0.001041
0.00303947
-0.00353719
0.00317457
-0.002602
0.00326913
-0.00188948
0.00319793
-0.00149888
0.00289507
-0.00123799
0.00245254
-0.00104208
0.00182888
-0.00100614
-0.00125068
0.00360789
-0.00368496
0.00370555
-0.00274518
0.00359844
-0.00206075
0.00349378
-0.00165721
0.00341115
-0.00136005
0.003047
-0.00116846
0.00244598
-0.00113895
-0.00139503
0.00416158
-0.00365719
0.00424886
-0.00273272
0.00415281
-0.00205623
0.00406672
-0.00163039
0.00400746
-0.00135974
0.00368571
-0.00122128
0.00313595
-0.00120969
-0.00146852
0.00471202
-0.00348997
0.00480289
-0.00260736
0.00479911
-0.00197118
0.00476365
-0.00157086
0.00467148
-0.00133141
0.00438873
-0.00122458
0.00392248
-0.00121918
-0.00146553
0.00525864
-0.00317653
0.00535789
-0.00235037
0.00541316
-0.00178564
0.00542575
-0.00143846
0.00536265
-0.00123814
0.00516188
-0.00115558
0.00482082
-0.00115261
-0.00137574
0.00580845
-0.00280212
0.00591429
-0.0020412
0.00601162
-0.00153488
0.00607545
-0.00123118
0.00608441
-0.0010647
0.00600916
-0.00100412
0.00583581
-0.00100137
-0.00118956
0.00636187
-0.00238037
0.00647182
-0.00169783
0.00660531
-0.00123812
0.00673407
-0.000966411
0.00684868
-0.000827733
0.00693876
-0.000785229
0.00696864
-0.000798346
-0.000965874
0.00691868
-0.00183731
0.00703609
-0.00128295
0.00721199
-0.000895822
0.00742799
-0.000661669
0.00768197
-0.000555981
0.00795847
-0.000550237
0.00819478
-0.00057971
-0.000704387
0.00745608
-0.00117206
0.00760125
-0.0007854
0.00784088
-0.000502398
0.00817686
-0.000332202
0.00859623
-0.000284415
0.00905314
-0.000304524
0.00948256
-0.000322027
-0.000389421
0.00794375
-0.000493839
0.00814135
-0.000261519
0.00846742
-9.60851e-05
0.0089319
-2.63729e-06
0.00951007
1.4267e-05
0.0101409
2.82452e-06
0.0107687
1.16785e-05
3.0564e-06
0.00832979
8.87279e-05
0.00858144
0.000201082
0.00899462
0.0002852
0.00955619
0.000341421
0.0102498
0.000376987
0.0110324
0.000396886
0.0118526
0.000426459
0.000458775
0.00766346
0.0079815
0.00844095
0.00901805
0.00969439
0.0104413
0.0112231
)
;

boundaryField
{
    walls
    {
        type            calculated;
        value           uniform 0;
    }
    cylinder
    {
        type            calculated;
        value           nonuniform List<scalar> 
16
(
2.0182e-12
-3.98439e-12
-2.57325e-12
3.55304e-12
-1.26102e-12
6.94056e-13
2.09138e-12
-1.70164e-12
1.7026e-12
-2.0897e-12
-6.92476e-13
1.26247e-12
-3.55262e-12
2.57483e-12
3.98697e-12
-2.01752e-12
)
;
    }
    outlet
    {
        type            calculated;
        value           nonuniform List<scalar> 0();
    }
    inlet
    {
        type            calculated;
        value           uniform 0;
    }
    frontAndBack
    {
        type            empty;
    }
    procBoundary0to1
    {
        type            processor;
        value           nonuniform List<scalar> 
16
(
0.000300949
0.000886022
0.00144437
0.00199023
0.00253544
0.00308613
0.00364617
0.00422375
0.00482514
0.00545654
0.00610916
0.0067659
0.00738791
0.00791578
0.00826572
0.00750201
)
;
    }
    procBoundary0to2
    {
        type            processor;
        value           nonuniform List<scalar> 
16
(
-0.000328293
-0.000980469
-0.00161738
-0.00223908
-0.00284552
-0.00343534
-0.00400988
-0.00457676
-0.0051458
-0.00572688
-0.00631415
-0.00688845
-0.00741976
-0.00788828
-0.00824397
-0.00749836
)
;
    }
}


// ************************************************************************* //
