/*--------------------------------*- C++ -*----------------------------------*\
| =========                 |                                                 |
| \\      /  F ield         | OpenFOAM: The Open Source CFD Toolbox           |
|  \\    /   O peration     | Version:  2412                                  |
|   \\  /    A nd           | Website:  www.openfoam.com                      |
|    \\/     M anipulation  |                                                 |
\*---------------------------------------------------------------------------*/
FoamFile
{
    version     2.0;
    format      ascii;
    arch        "LSB;label=32;scalar=64";
    class       pointVectorField;
    location    "1";
    object      pointDisplacement;
}
// * * * * * * * * * * * * * * * * * * * * * * * * * * * * * * * * * * * * * //

dimensions      [0 1 0 0 0 0 0];

internalField   nonuniform List<vector> 
578
(
(0 0 0)
(0 0 0)
(0 0 0)
(0 0 0)
(0 0 0)
(0 0 0)
(0 0 0)
(0 0 0)
(0 0 0)
(0.00589517 -0.00888338 0)
(0.00799942 -0.0115676 0)
(0.0122486 -0.0159154 0)
(0.0169371 -0.0188329 0)
(0.0221802 -0.0201916 0)
(0.0278752 -0.0198259 0)
(0.0336543 -0.0176066 0)
(0.0388744 -0.0135545 0)
(0.0427724 -0.00799705 0)
(0.0149398 -0.0223975 0)
(0.0190676 -0.0268349 0)
(0.027377 -0.0342046 0)
(0.0365576 -0.0387867 0)
(0.0467266 -0.0403855 0)
(0.0575784 -0.0387224 0)
(0.0683384 -0.0336275 0)
(0.0778029 -0.0252564 0)
(0.0846109 -0.0143292 0)
(0.0267807 -0.0397814 0)
(0.0329388 -0.0450813 0)
(0.0450731 -0.0541352 0)
(0.0584769 -0.059193 0)
(0.0731624 -0.0600193 0)
(0.0885464 -0.0562648 0)
(0.103437 -0.0477937 0)
(0.116192 -0.0349882 0)
(0.124979 -0.0189764 0)
(0.0412854 -0.0604868 0)
(0.0495516 -0.0658202 0)
(0.0652951 -0.0752919 0)
(0.0826313 -0.0797189 0)
(0.101379 -0.0788449 0)
(0.120636 -0.0723004 0)
(0.13883 -0.0600567 0)
(0.15397 -0.0427722 0)
(0.163923 -0.0219727 0)
(0.0583772 -0.0839215 0)
(0.0688677 -0.0885199 0)
(0.0880102 -0.0972223 0)
(0.108958 -0.0999956 0)
(0.131268 -0.0965817 0)
(0.153711 -0.0866444 0)
(0.174408 -0.0703319 0)
(0.191084 -0.0485889 0)
(0.201501 -0.0232988 0)
(0.0780513 -0.109466 0)
(0.0908988 -0.112624 0)
(0.113219 -0.119452 0)
(0.137412 -0.119624 0)
(0.16274 -0.112919 0)
(0.187667 -0.0990845 0)
(0.210065 -0.0784857 0)
(0.227494 -0.0523583 0)
(0.237802 -0.02288 0)
(0.100381 -0.136471 0)
(0.115713 -0.137537 0)
(0.140972 -0.141473 0)
(0.167997 -0.138176 0)
(0.195752 -0.127511 0)
(0.222429 -0.109362 0)
(0.245717 -0.084334 0)
(0.263184 -0.0539382 0)
(0.272927 -0.0205661 0)
(0.125531 -0.164236 0)
(0.143432 -0.162572 0)
(0.17135 -0.162682 0)
(0.200745 -0.15514 0)
(0.230268 -0.139928 0)
(0.257909 -0.117131 0)
(0.2813 -0.0876096 0)
(0.298186 -0.0531065 0)
(0.306966 -0.0161269 0)
(0.153764 -0.191983 0)
(0.174255 -0.186938 0)
(0.204471 -0.182335 0)
(0.235671 -0.169842 0)
(0.266229 -0.149597 0)
(0.294023 -0.121924 0)
(0.31678 -0.0879333 0)
(0.33252 -0.049532 0)
(0.339918 -0.00925311 0)
(0.185489 -0.2188 0)
(0.208499 -0.209691 0)
(0.240533 -0.199533 0)
(0.272852 -0.181447 0)
(0.303621 -0.155785 0)
(0.330727 -0.123126 0)
(0.352111 -0.0847849 0)
(0.366096 -0.0427665 0)
(0.371679 0.000470112 0)
(0.221299 -0.243541 0)
(0.246637 -0.229633 0)
(0.279857 -0.213113 0)
(0.312442 -0.188874 0)
(0.342455 -0.157526 0)
(0.367927 -0.119901 0)
(0.387112 -0.0774591 0)
(0.398716 -0.0321949 0)
(0.402106 0.013629 0)
(0.262003 -0.264554 0)
(0.289286 -0.24503 0)
(0.322795 -0.2214 0)
(0.354527 -0.190587 0)
(0.382599 -0.153486 0)
(0.405347 -0.111125 0)
(0.421443 -0.0649929 0)
(0.430036 -0.0169568 0)
(0.430846 0.0310082 0)
(0.308578 -0.279329 0)
(0.337095 -0.253201 0)
(0.369532 -0.22184 0)
(0.398857 -0.184324 0)
(0.423498 -0.141764 0)
(0.44228 -0.0952558 0)
(0.454359 -0.0461627 0)
(0.459298 0.00394457 0)
(0.457101 0.0534721 0)
(0.361762 -0.283781 0)
(0.390211 -0.250003 0)
(0.419398 -0.21083 0)
(0.444127 -0.167185 0)
(0.463501 -0.120124 0)
(0.47694 -0.0706109 0)
(0.484078 -0.0197009 0)
(0.484797 0.0314737 0)
(0.479235 0.0817778 0)
(0.418104 -0.270303 0)
(0.443702 -0.228808 0)
(0.466412 -0.183812 0)
(0.484235 -0.1363 0)
(0.496872 -0.0869671 0)
(0.504142 -0.0364639 0)
(0.505955 0.0145404 0)
(0.502315 0.0653529 0)
(0.493332 0.115284 0)
(0.447021 -0.258479 0)
(0.470204 -0.213418 0)
(0.488858 -0.166303 0)
(0.502805 -0.117585 0)
(0.511909 -0.0677357 0)
(0.516083 -0.0172336 0)
(0.515287 0.0334344 0)
(0.509529 0.0837804 0)
(0.498864 0.13332 0)
(0 0 0)
(0 0 0)
(0 0 0)
(0 0 0)
(0 0 0)
(0 0 0)
(0 0 0)
(0 0 0)
(0 0 0)
(0.00589517 -0.00888338 0)
(0.00799942 -0.0115676 0)
(0.0122486 -0.0159154 0)
(0.0169371 -0.0188329 0)
(0.0221802 -0.0201916 0)
(0.0278752 -0.0198259 0)
(0.0336543 -0.0176066 0)
(0.0388744 -0.0135545 0)
(0.0427724 -0.00799705 0)
(0.0149398 -0.0223975 0)
(0.0190676 -0.0268349 0)
(0.027377 -0.0342046 0)
(0.0365576 -0.0387867 0)
(0.0467266 -0.0403855 0)
(0.0575784 -0.0387224 0)
(0.0683384 -0.0336275 0)
(0.0778029 -0.0252564 0)
(0.0846109 -0.0143292 0)
(0.0267807 -0.0397814 0)
(0.0329388 -0.0450813 0)
(0.0450731 -0.0541352 0)
(0.0584769 -0.059193 0)
(0.0731624 -0.0600193 0)
(0.0885464 -0.0562648 0)
(0.103437 -0.0477937 0)
(0.116192 -0.0349882 0)
(0.124979 -0.0189764 0)
(0.0412854 -0.0604868 0)
(0.0495516 -0.0658202 0)
(0.0652951 -0.0752919 0)
(0.0826313 -0.0797189 0)
(0.101379 -0.0788449 0)
(0.120636 -0.0723004 0)
(0.13883 -0.0600567 0)
(0.15397 -0.0427722 0)
(0.163923 -0.0219727 0)
(0.0583772 -0.0839215 0)
(0.0688677 -0.0885199 0)
(0.0880102 -0.0972223 0)
(0.108958 -0.0999956 0)
(0.131268 -0.0965817 0)
(0.153711 -0.0866444 0)
(0.174408 -0.0703319 0)
(0.191084 -0.0485889 0)
(0.201501 -0.0232988 0)
(0.0780513 -0.109466 0)
(0.0908988 -0.112624 0)
(0.113219 -0.119452 0)
(0.137412 -0.119624 0)
(0.16274 -0.112919 0)
(0.187667 -0.0990845 0)
(0.210065 -0.0784857 0)
(0.227494 -0.0523583 0)
(0.237802 -0.02288 0)
(0.100381 -0.136471 0)
(0.115713 -0.137537 0)
(0.140972 -0.141473 0)
(0.167997 -0.138176 0)
(0.195752 -0.127511 0)
(0.222429 -0.109362 0)
(0.245717 -0.084334 0)
(0.263184 -0.0539382 0)
(0.272927 -0.0205661 0)
(0.125531 -0.164236 0)
(0.143432 -0.162572 0)
(0.17135 -0.162682 0)
(0.200745 -0.15514 0)
(0.230268 -0.139928 0)
(0.257909 -0.117131 0)
(0.2813 -0.0876096 0)
(0.298186 -0.0531065 0)
(0.306966 -0.0161269 0)
(0.153764 -0.191983 0)
(0.174255 -0.186938 0)
(0.204471 -0.182335 0)
(0.235671 -0.169842 0)
(0.266229 -0.149597 0)
(0.294023 -0.121924 0)
(0.31678 -0.0879333 0)
(0.33252 -0.049532 0)
(0.339918 -0.00925311 0)
(0.185489 -0.2188 0)
(0.208499 -0.209691 0)
(0.240533 -0.199533 0)
(0.272852 -0.181447 0)
(0.303621 -0.155785 0)
(0.330727 -0.123126 0)
(0.352111 -0.0847849 0)
(0.366096 -0.0427665 0)
(0.371679 0.000470112 0)
(0.221299 -0.243541 0)
(0.246637 -0.229633 0)
(0.279857 -0.213113 0)
(0.312442 -0.188874 0)
(0.342455 -0.157526 0)
(0.367927 -0.119901 0)
(0.387112 -0.0774591 0)
(0.398716 -0.0321949 0)
(0.402106 0.013629 0)
(0.262003 -0.264554 0)
(0.289286 -0.24503 0)
(0.322795 -0.2214 0)
(0.354527 -0.190587 0)
(0.382599 -0.153486 0)
(0.405347 -0.111125 0)
(0.421443 -0.0649929 0)
(0.430036 -0.0169568 0)
(0.430846 0.0310082 0)
(0.308578 -0.279329 0)
(0.337095 -0.253201 0)
(0.369532 -0.22184 0)
(0.398857 -0.184324 0)
(0.423498 -0.141764 0)
(0.44228 -0.0952558 0)
(0.454359 -0.0461627 0)
(0.459298 0.00394457 0)
(0.457101 0.0534721 0)
(0.361762 -0.283781 0)
(0.390211 -0.250003 0)
(0.419398 -0.21083 0)
(0.444127 -0.167185 0)
(0.463501 -0.120124 0)
(0.47694 -0.0706109 0)
(0.484078 -0.0197009 0)
(0.484797 0.0314737 0)
(0.479235 0.0817778 0)
(0.418104 -0.270303 0)
(0.443702 -0.228808 0)
(0.466412 -0.183812 0)
(0.484235 -0.1363 0)
(0.496872 -0.0869671 0)
(0.504142 -0.0364639 0)
(0.505955 0.0145404 0)
(0.502315 0.0653529 0)
(0.493332 0.115284 0)
(0.447021 -0.258479 0)
(0.470204 -0.213418 0)
(0.488858 -0.166303 0)
(0.502805 -0.117585 0)
(0.511909 -0.0677357 0)
(0.516083 -0.0172336 0)
(0.515287 0.0334344 0)
(0.509529 0.0837804 0)
(0.498864 0.13332 0)
(0 0 0)
(0 0 0)
(0 0 0)
(0 0 0)
(0 0 0)
(0 0 0)
(0 0 0)
(0 0 0)
(-0.00801287 -0.0427359 0)
(-0.00164088 -0.0444787 0)
(0.00454456 -0.0435194 0)
(0.00947715 -0.0399574 0)
(0.01238 -0.0343559 0)
(0.0129544 -0.0275069 0)
(0.011366 -0.0201456 0)
(0.00808274 -0.0127614 0)
(-0.0143618 -0.0845436 0)
(-0.00220476 -0.0873424 0)
(0.00941502 -0.0853659 0)
(0.0187271 -0.0788881 0)
(0.024474 -0.0688749 0)
(0.0261516 -0.056611 0)
(0.0239629 -0.0432877 0)
(0.0185652 -0.0296939 0)
(-0.0190251 -0.124887 0)
(-0.00167788 -0.128097 0)
(0.0146771 -0.125035 0)
(0.0278541 -0.116181 0)
(0.0363361 -0.102787 0)
(0.0394994 -0.0864217 0)
(0.0375241 -0.0685231 0)
(0.0310989 -0.0500224 0)
(-0.0220361 -0.163813 0)
(-2.91724e-05 -0.166952 0)
(0.0204944 -0.162786 0)
(0.0371353 -0.152004 0)
(0.0482629 -0.136054 0)
(0.0531978 -0.11666 0)
(0.05208 -0.0953779 0)
(0.0455622 -0.0731811 0)
(-0.0233738 -0.20138 0)
(0.00282762 -0.204097 0)
(0.0270642 -0.198856 0)
(0.0468633 -0.186528 0)
(0.0605705 -0.168678 0)
(0.0674925 -0.147104 0)
(0.0677405 -0.123423 0)
(0.0619229 -0.0986049 0)
(-0.0229631 -0.237676 0)
(0.00703493 -0.239711 0)
(0.0346222 -0.233447 0)
(0.0573419 -0.21988 0)
(0.073582 -0.200644 0)
(0.0826665 -0.177564 0)
(0.084689 -0.152269 0)
(0.0802375 -0.125735 0)
(-0.0206526 -0.272802 0)
(0.0127977 -0.273953 0)
(0.0434242 -0.266669 0)
(0.0688659 -0.252067 0)
(0.0876105 -0.231847 0)
(0.0990223 -0.207806 0)
(0.103169 -0.181534 0)
(0.100645 -0.154008 0)
(-0.0162116 -0.306849 0)
(0.0203663 -0.306892 0)
(0.0537551 -0.298542 0)
(0.0817634 -0.283052 0)
(0.103007 -0.26214 0)
(0.116898 -0.23755 0)
(0.123486 -0.210801 0)
(0.123384 -0.182843 0)
(-0.00933083 -0.339814 0)
(0.0300597 -0.338503 0)
(0.065978 -0.329048 0)
(0.0964406 -0.312776 0)
(0.120196 -0.291362 0)
(0.136713 -0.266486 0)
(0.146038 -0.239599 0)
(0.148796 -0.2116 0)
(0.000405051 -0.371593 0)
(0.0423112 -0.368718 0)
(0.0805631 -0.358114 0)
(0.113395 -0.341097 0)
(0.139695 -0.319268 0)
(0.158991 -0.294225 0)
(0.171328 -0.267362 0)
(0.177347 -0.239521 0)
(0.0135804 -0.40204 0)
(0.0577123 -0.397404 0)
(0.0981117 -0.385552 0)
(0.133246 -0.36775 0)
(0.162151 -0.345483 0)
(0.184399 -0.320238 0)
(0.200021 -0.293348 0)
(0.209687 -0.265631 0)
(0.030978 -0.430801 0)
(0.0769814 -0.424164 0)
(0.119319 -0.410893 0)
(0.156711 -0.392175 0)
(0.188318 -0.36934 0)
(0.213733 -0.343715 0)
(0.232975 -0.316521 0)
(0.2467 -0.288563 0)
(0.0534599 -0.457075 0)
(0.100916 -0.448155 0)
(0.144973 -0.433245 0)
(0.184597 -0.413358 0)
(0.219037 -0.389639 0)
(0.247905 -0.363222 0)
(0.271189 -0.335172 0)
(0.28944 -0.306227 0)
(0.0817782 -0.479223 0)
(0.13014 -0.467758 0)
(0.175592 -0.450955 0)
(0.217331 -0.429556 0)
(0.254727 -0.404426 0)
(0.287412 -0.376457 0)
(0.315288 -0.346507 0)
(0.338698 -0.315174 0)
(0.115286 -0.493329 0)
(0.163671 -0.479211 0)
(0.209884 -0.460265 0)
(0.253355 -0.436878 0)
(0.293598 -0.409515 0)
(0.330234 -0.378685 0)
(0.363001 -0.344911 0)
(0.391838 -0.308619 0)
(0.13332 -0.498864 0)
(0.181575 -0.483394 0)
(0.228081 -0.463269 0)
(0.272391 -0.438682 0)
(0.314078 -0.409871 0)
(0.35274 -0.377112 0)
(0.388005 -0.340722 0)
(0.419533 -0.30105 0)
(0 0 0)
(0 0 0)
(0 0 0)
(0 0 0)
(0 0 0)
(0 0 0)
(0 0 0)
(0 0 0)
(-0.00801287 -0.0427359 0)
(-0.00164088 -0.0444787 0)
(0.00454456 -0.0435194 0)
(0.00947715 -0.0399574 0)
(0.01238 -0.0343559 0)
(0.0129544 -0.0275069 0)
(0.011366 -0.0201456 0)
(0.00808274 -0.0127614 0)
(-0.0143618 -0.0845436 0)
(-0.00220476 -0.0873424 0)
(0.00941502 -0.0853659 0)
(0.0187271 -0.0788881 0)
(0.024474 -0.0688749 0)
(0.0261516 -0.056611 0)
(0.0239629 -0.0432877 0)
(0.0185652 -0.0296939 0)
(-0.0190251 -0.124887 0)
(-0.00167788 -0.128097 0)
(0.0146771 -0.125035 0)
(0.0278541 -0.116181 0)
(0.0363361 -0.102787 0)
(0.0394994 -0.0864217 0)
(0.0375241 -0.0685231 0)
(0.0310989 -0.0500224 0)
(-0.0220361 -0.163813 0)
(-2.91724e-05 -0.166952 0)
(0.0204944 -0.162786 0)
(0.0371353 -0.152004 0)
(0.0482629 -0.136054 0)
(0.0531978 -0.11666 0)
(0.05208 -0.0953779 0)
(0.0455622 -0.0731811 0)
(-0.0233738 -0.20138 0)
(0.00282762 -0.204097 0)
(0.0270642 -0.198856 0)
(0.0468633 -0.186528 0)
(0.0605705 -0.168678 0)
(0.0674925 -0.147104 0)
(0.0677405 -0.123423 0)
(0.0619229 -0.0986049 0)
(-0.0229631 -0.237676 0)
(0.00703493 -0.239711 0)
(0.0346222 -0.233447 0)
(0.0573419 -0.21988 0)
(0.073582 -0.200644 0)
(0.0826665 -0.177564 0)
(0.084689 -0.152269 0)
(0.0802375 -0.125735 0)
(-0.0206526 -0.272802 0)
(0.0127977 -0.273953 0)
(0.0434242 -0.266669 0)
(0.0688659 -0.252067 0)
(0.0876105 -0.231847 0)
(0.0990223 -0.207806 0)
(0.103169 -0.181534 0)
(0.100645 -0.154008 0)
(-0.0162116 -0.306849 0)
(0.0203663 -0.306892 0)
(0.0537551 -0.298542 0)
(0.0817634 -0.283052 0)
(0.103007 -0.26214 0)
(0.116898 -0.23755 0)
(0.123486 -0.210801 0)
(0.123384 -0.182843 0)
(-0.00933083 -0.339814 0)
(0.0300597 -0.338503 0)
(0.065978 -0.329048 0)
(0.0964406 -0.312776 0)
(0.120196 -0.291362 0)
(0.136713 -0.266486 0)
(0.146038 -0.239599 0)
(0.148796 -0.2116 0)
(0.000405051 -0.371593 0)
(0.0423112 -0.368718 0)
(0.0805631 -0.358114 0)
(0.113395 -0.341097 0)
(0.139695 -0.319268 0)
(0.158991 -0.294225 0)
(0.171328 -0.267362 0)
(0.177347 -0.239521 0)
(0.0135804 -0.40204 0)
(0.0577123 -0.397404 0)
(0.0981117 -0.385552 0)
(0.133246 -0.36775 0)
(0.162151 -0.345483 0)
(0.184399 -0.320238 0)
(0.200021 -0.293348 0)
(0.209687 -0.265631 0)
(0.030978 -0.430801 0)
(0.0769814 -0.424164 0)
(0.119319 -0.410893 0)
(0.156711 -0.392175 0)
(0.188318 -0.36934 0)
(0.213733 -0.343715 0)
(0.232975 -0.316521 0)
(0.2467 -0.288563 0)
(0.0534599 -0.457075 0)
(0.100916 -0.448155 0)
(0.144973 -0.433245 0)
(0.184597 -0.413358 0)
(0.219037 -0.389639 0)
(0.247905 -0.363222 0)
(0.271189 -0.335172 0)
(0.28944 -0.306227 0)
(0.0817782 -0.479223 0)
(0.13014 -0.467758 0)
(0.175592 -0.450955 0)
(0.217331 -0.429556 0)
(0.254727 -0.404426 0)
(0.287412 -0.376457 0)
(0.315288 -0.346507 0)
(0.338698 -0.315174 0)
(0.115286 -0.493329 0)
(0.163671 -0.479211 0)
(0.209884 -0.460265 0)
(0.253355 -0.436878 0)
(0.293598 -0.409515 0)
(0.330234 -0.378685 0)
(0.363001 -0.344911 0)
(0.391838 -0.308619 0)
(0.13332 -0.498864 0)
(0.181575 -0.483394 0)
(0.228081 -0.463269 0)
(0.272391 -0.438682 0)
(0.314078 -0.409871 0)
(0.35274 -0.377112 0)
(0.388005 -0.340722 0)
(0.419533 -0.30105 0)
)
;

boundaryField
{
    walls
    {
        type            fixedValue;
        value           uniform (0 0 0);
    }
    cylinder
    {
        type            solidBodyMotionDisplacement;
        value           nonuniform List<vector> 
34
(
(0.447021 -0.258479 0)
(0.447021 -0.258479 0)
(0.470204 -0.213418 0)
(0.470204 -0.213418 0)
(0.488858 -0.166303 0)
(0.488858 -0.166303 0)
(0.502805 -0.117585 0)
(0.502805 -0.117585 0)
(0.511909 -0.0677357 0)
(0.511909 -0.0677357 0)
(0.516083 -0.0172336 0)
(0.516083 -0.0172336 0)
(0.515287 0.0334344 0)
(0.515287 0.0334344 0)
(0.509529 0.0837804 0)
(0.509529 0.0837804 0)
(0.498864 0.13332 0)
(0.498864 0.13332 0)
(0.13332 -0.498864 0)
(0.13332 -0.498864 0)
(0.181575 -0.483394 0)
(0.181575 -0.483394 0)
(0.228081 -0.463269 0)
(0.228081 -0.463269 0)
(0.272391 -0.438682 0)
(0.272391 -0.438682 0)
(0.314078 -0.409871 0)
(0.314078 -0.409871 0)
(0.35274 -0.377112 0)
(0.35274 -0.377112 0)
(0.388005 -0.340722 0)
(0.388005 -0.340722 0)
(0.419533 -0.30105 0)
(0.419533 -0.30105 0)
)
;
        solidBodyMotionFunction oscillatingRotatingMotion;
        oscillatingRotatingMotionCoeffs
        {
            origin          ( 0 0 0 );
            axis            ( 0 0 1 );
            omega           1.5;
            amplitude       ( 0 0 30 );
        }
    }
    outlet
    {
        type            fixedValue;
        value           nonuniform List<vector> 0();
    }
    inlet
    {
        type            fixedValue;
        value           uniform (0 0 0);
    }
    frontAndBack
    {
        type            empty;
    }
    procBoundary0to1
    {
        type            processor;
    }
    procBoundary0to2
    {
        type            processor;
    }
}


// ************************************************************************* //
