# Region          : all region0
# Cells           : 14936
# Volume          : 1.5804909678e+03
# Time            	average(pointDisplacement)
