# Region          : all region0
# Cells           : 942
# Volume          : 3.7218847051e-01
# Time            	average(pointDisplacement)
