/*--------------------------------*- C++ -*----------------------------------*\
| =========                 |                                                 |
| \\      /  F ield         | OpenFOAM: The Open Source CFD Toolbox           |
|  \\    /   O peration     | Version:  2412                                  |
|   \\  /    A nd           | Website:  www.openfoam.com                      |
|    \\/     M anipulation  |                                                 |
\*---------------------------------------------------------------------------*/
FoamFile
{
    version     2.0;
    format      ascii;
    arch        "LSB;label=32;scalar=64";
    class       volScalarField;
    location    "953";
    object      p;
}
// * * * * * * * * * * * * * * * * * * * * * * * * * * * * * * * * * * * * * //

dimensions      [0 2 -2 0 0 0 0];

internalField   nonuniform List<scalar> 
808
(
-0.03601491906712755
0.04500380724066325
-0.01173398002381482
0.03491747818489883
-0.3040842854813351
-0.05471883852667073
-0.01460513067893599
-0.02396173125320575
-0.2003685325177134
-0.08581599931575698
-0.009690532605051431
-0.2580462779933397
-0.03059974882834836
-0.01301009646722662
-0.1206902743665861
-0.01405455424257025
-0.1388838036310345
-0.01358791597519102
-0.01237686040950985
-0.05706229365000969
-0.005986408909242608
0.1183269148516434
-0.06084078821581964
-0.07354792296550193
0.1765737936346898
-0.09949692020445719
-0.1554833706010878
-0.02030827930449822
-0.01736485877645079
-0.02596369077322941
-0.02017968488392048
-0.05998606524987408
-0.02291741240850799
-0.01682447747328768
-0.1013651614180193
0.343918447974061
-0.03860152604185126
-0.01673130141243742
-0.02330533892572827
-0.02656831266548306
-0.09211075625687529
-0.1292629459000551
-0.0507938753335747
-0.02071848287209919
-0.05451981179495404
-0.03986892949608112
-0.01232809319442458
-0.1878642518583364
-0.02762528602524481
-0.2077384708490917
-0.01620238047059334
-0.06910888880664888
-0.05950231563542257
-0.0145512300348395
-0.1902660631428265
-0.029014000453709
-0.01054807908142557
-0.01397478179815597
-0.1025869346291182
-0.04073497191863625
-0.09889747393292606
-0.1288198618831313
-0.01345194346549572
-0.130885880958167
-0.01703904719060885
-0.05060422731443337
-0.1679324270773732
-0.03565500073131239
-0.01484268868781326
-0.4465135748750839
-0.02699859054021372
-0.3081539233592533
-0.02203673844337187
-0.02047194999873107
-0.06763952178062005
-0.01736462231708789
-0.0435937369856161
-0.358746376280849
-0.03552063032069459
0.04218513095714822
-0.09033459142373214
-0.01728946375012925
0.05681367150492401
0.04331892678092618
-0.01657926486777557
-0.05337181766834365
-0.5493584166060358
-0.2226935891374786
-0.05351210053040334
-0.1114558225013991
-0.05814595873825958
-0.1352343178807234
0.04076579934809102
-0.02379262773395639
-0.06054807116564842
-0.1208694454579624
-0.03849067373095374
-0.05187972633508251
-0.1184598520503356
-0.1410725379078952
-0.05215874949482318
-0.04847619126448074
-0.05573333138663088
-0.04585015150826447
-0.05799341177769816
-0.07322913801794091
-0.0411594995232848
-0.01115530236785698
-0.04113303302318788
-0.1269385109831455
-0.0513125955411874
0.08340035558255503
-0.04318259589481281
-0.007970699967929824
-0.02781847408642646
0.1800504791328079
-0.03993621698030669
-0.2738436772876142
-0.02035757559517527
-0.05497838300898888
-0.02839703865604573
-0.04785583264957968
0.01252901511647486
-0.05021937018131951
-0.03399617081339175
-0.2139940269824591
-0.04304773399566185
-0.004977743872654331
-0.0779027572968371
-0.06754149891764342
-0.1495399505256893
-0.02100946776456912
-0.07671107696295819
-0.04107610342234996
-0.02278131868869342
-0.01667263621745014
-0.006360221981175443
-0.0074445041346589
-0.05320236412400951
-0.05105947379943683
-0.2080340955524344
-0.05825322735168122
-0.008568016488269804
-0.02279755071235605
-0.1447642024409073
-0.002211524443551247
-0.07792221411192142
-0.02389085000144173
-0.001209682432241643
-0.01025448325056275
-0.03393355652304387
0.09564002335124212
-0.03989800328887651
0.2527565821609303
-0.2628349712225549
-0.1302834042634662
-0.03720126835104802
-0.09127520189318292
-0.009114649432885161
-0.1117182495604133
-0.1848669951321019
-0.2129446873445617
-0.1841664422714636
0.05529310729619918
-0.06183124177794059
-0.02031960849050102
-0.06802713822989909
-0.1741418233260366
-0.02393235754080925
-0.01860804979212613
-0.05344128361017995
-0.01799323657555304
-0.005947642687850813
-0.1107865309725939
-0.02283914126293128
-0.0467994058891288
-0.06877383758084307
-0.1642273497741686
-0.03374306081113779
-0.3962584591869084
-0.01781108446606048
-0.2223283127854961
-0.04555343814739721
0.03040690137607779
-0.1048422173098853
-0.01415523466706303
-0.04160670933825194
-0.1061667569798496
-0.01773927328302324
-0.09735675781380876
-0.204386490798341
-0.07315895377961346
-0.02376586169081824
-0.05002013030064328
-0.04392958825042714
-0.2033912017746514
-0.02190072253606716
-0.01899418838035269
-0.01137873782254351
-0.05458395023432377
-0.0521841602921685
-0.02247678714102682
-0.02082109653599423
-0.247174803891386
0.1280364346483112
-0.2003604012764134
-0.208038796803067
-0.01177275179044016
-0.01162270589836104
-0.06773908634303387
-0.009459110284524301
-0.5138629732882141
-0.1243182514820295
-0.01901214602418301
-0.001533062907053179
-0.02429719264707893
-0.287354987376382
-0.2734706175391563
-0.007185408135983548
-0.01781717959553692
-0.002270702676080476
-0.3439265946506706
-0.02830812840792637
-0.02919747000811239
-0.01252804027099948
-0.01976322005190478
0.05103520707063484
-0.1112170887599553
-0.0137585618072409
-0.02074851655304848
-0.04291827537800606
-0.01822133360725999
-0.01617557214109065
-0.02337091803430463
-0.06681406614840865
-0.01184575596499811
-0.01905967531065659
-0.008581993139703746
-0.0009560010140334347
-0.02954074882438104
-0.001592645965735147
-0.002278113202696155
-0.006098698477013824
-0.0256089487044736
-0.008036609052653541
0.001606532574244366
-0.004127303960232288
0.001121649423645013
0.002475685931078734
-0.008527282841348441
-0.1408206672246036
-0.003028943745801147
-0.001043487832789135
-0.04831287627775509
-0.0214689759360952
-0.02492042522095747
-0.01434173848293032
-0.006087489493054411
-0.02091333334097633
-0.03729531694656612
-0.01414447799373657
-0.01275127669420038
-0.01199977423066026
0.00622542364503978
-0.01019240564918724
-0.01226077083677318
-0.01125239453472823
-0.01072481635136346
-0.01001804237987873
-0.01125998393665156
-0.01410918889792267
-0.3098931775541331
0.06111899723531546
-0.01527100616842946
-0.01678163941268135
-0.01299700795805943
-0.01248467690885075
-0.008679411450041577
-0.09861421360575451
0.008814981031634103
-0.01389191573058185
-0.01476166504199574
-0.01083621150085192
-0.05345074417012014
-0.009494959732008673
-0.01394017496914139
-0.009162026998818764
-0.001092313312555507
-0.009737165038265241
-0.01072665532225613
-0.02490174294515685
-0.016296920947063
-0.01199476059861793
-0.01331273213027519
-0.008370880490947186
-0.01308921722062117
-0.01145552403444669
-0.05718497627643908
-0.01290740005359158
-0.01155006580085875
-0.008701746743247576
-0.01492747246346388
-0.01408409574966433
-0.01575157236870672
-1.381506641759227
-0.09819801008677133
-0.01288715008121125
0.02272039527384246
-0.1661318097413892
-0.09321527562903739
-0.01134748658961867
-0.01409118756256535
-0.2571887302498048
-0.03101901853983382
-0.02067907109031591
-0.01094367864155578
-0.01973676132719907
-0.01116554901311991
-0.03068984899329216
-0.4164236167073014
-0.01223888395774169
-0.01409757280970381
-0.004887543672337751
-0.01046980279768118
-0.009416448577452559
-0.01435111417205828
-0.009550470056828747
-0.02619634219819244
-0.01128251225677992
-0.1605271616379818
0.01737341426759488
-0.007778588470682936
0.00291273670201194
0.01286028898623854
-0.04728218626135897
0.02999485859191006
-0.01279385639628736
-0.1362639664736985
0.2818887398716126
-0.00737855329911179
-0.01312914310404803
-0.00843507385067202
-0.03329351294470169
-0.1221936828560509
-0.01318721101782801
-0.01238799453095237
-0.0170517466510595
-0.01363255792556407
-0.04096893197033724
-0.2135639504988476
-0.01149442327080646
-0.04107872826960029
-0.03994323468251675
-0.1654281084345449
-0.1647480328628332
-0.145270336488815
-0.2592441491399893
-0.00691302790582538
-0.02131109246430762
-0.01454137885037712
-0.01282892552954614
-0.03282960387022846
-0.02438368300030489
-0.01448579308145115
-0.01505071201303555
-1.084191180592555
-0.005025774670083354
-0.01375822505057196
-0.01844598337094635
-0.01847987596439168
0.00307096742203765
-0.0139823769152844
-0.02804884208716388
-0.1665868768165158
-0.01358953563336478
-0.02209619645952159
-0.01395148279655156
0.001819490177129351
-0.1792055904167761
-0.01340024312721116
-0.1432731515010984
-0.01606646423854933
0.009550665799725713
-0.01453708079591276
-0.02311203591273602
-0.01577910589933191
0.005140619282248073
-0.278763872479082
-0.02552159296685326
-0.01610849894965309
-0.006827905955528789
-0.009420498756116912
-0.03063920097646662
-0.01438780511508323
-0.02044646315976805
-0.02138703089455056
0.01095310640222552
-0.1014135908061387
-0.02217318302854194
0.009196032358882396
-0.05055228804031862
0.1570446474271372
-0.1025907487670894
-0.3226716097825693
-0.03034460091949186
-0.0254086670599078
0.1487036742488574
0.08797511032094349
-0.003270961930664731
0.05006955985700644
-0.0157357621880938
-0.01461791917594802
0.002210938222243793
0.01200798806135062
-0.0673262395543015
-0.005484978611986969
-0.05776527306288361
-0.0223103095225988
-0.01570892436202966
-0.03652386959414547
-0.03292057586178424
-0.006646555851697728
-0.01494142915848595
-0.03953292314884704
0.03675257625606321
-0.03887577338417544
-0.01351880691201728
-0.1159772415223643
-0.03196529801068369
-0.03847274088273338
-0.6792803845727152
0.017874570685591
-0.01107933541800326
-0.005273590035187595
0.16335245583706
-0.08501855364234459
-0.03498005425745838
-0.2479090692005431
-0.01655128596782375
-0.01662867303989261
0.06068562356618851
-0.1858298745443981
-0.2255166555790231
-0.1983366745212819
-0.6883005842958847
0.006959813273774577
-0.01790485723818993
-0.0164014287767264
-0.07971599809417546
0.1175509759574147
-0.02127667738664504
-0.2493376774466534
-0.03493982617599397
-0.006450952457031476
0.2763911405678076
-0.01126056587492097
-0.09423527422615946
-0.1484089868960704
-0.004781745474255286
-0.04038511829399934
-0.04615311679422201
-0.2059845566755124
-0.008934404515996155
-0.04248415261292301
-0.002673698731376482
-0.5526961331057666
-0.2012019239102794
-0.1751499139111493
-0.02275218696528196
-0.006931935256486709
-0.0597590105176541
-0.05847355017422409
-0.01517482531827619
-0.06734948718515428
0.003070878229371192
-0.01840100240867263
-0.0955306361740304
-0.2662528908740197
-0.007901205276443692
-0.02624426958337406
-0.02212960807183014
-0.07402155340770937
-0.09147760675112988
-0.08757876002249237
-0.01149221085576193
-0.9289673914689713
0.1603503885864411
-0.08018413978319074
-0.2583513834533921
-0.04273691313387561
-0.01034104632778486
-0.2497770466226529
-0.1827351977079624
-0.03357832257157351
-0.1261519992474462
-0.018576368445694
0.5623747741026276
-0.02382751187019808
-0.2288483398681091
-0.0262821584747497
-0.005232858090661646
-0.01186925203457581
-1.256944551228305
-0.1843156314685659
-0.2348996259262942
0.005419503709577202
-0.03688067527451908
-0.2519189034914213
-0.06523759213927272
-0.05085462964643463
-0.1412673302291795
-0.1933473597820188
-0.06757651396517024
-1.232693650911397
-0.1445761625480789
-0.5184409545620858
0.07834483765327081
-0.00708783918171951
-0.02206046233012274
-0.0423612876936457
-0.04105839267059913
-0.02883798966668289
-0.1322341121406335
0.07952901768299495
-0.003245950753687104
-0.009705287766147874
-0.5815095048608994
-0.8662020294251165
-0.1870948877809394
-0.008131084720825183
-0.1363258286928778
0.001050177007222161
-0.0007781596085697073
-0.001940656597180943
-0.0600372628380542
-0.2399853937024419
-0.01345082413056435
-0.1233988722715464
-0.1545733229277874
-0.01323874842053847
-0.0360462427312933
0.02156978366301171
-0.05716010934143086
-0.0694588181823266
-0.504477841748119
-0.2464561880698212
-0.08130716258879454
-0.07214945366417572
-0.01996471348782631
-0.1217512159094386
-0.1538734122949227
-0.07564921884722323
0.02478127840626177
-0.08408313625881393
-0.04779697444398463
-0.01492351191687326
-0.108688919939907
-0.2715144784086587
-0.05645554690551838
-0.01856949879360199
0.0009752790452348476
-0.01007276338595654
-0.01117168038354321
-0.2179467579730617
-0.01495863534332937
-0.2234313195184831
-0.01049399236367327
-0.06532585446997569
-0.003575296206186626
-0.02319118602492957
-0.3765232579821543
-0.9060888522259529
-0.01132686560228983
-1.052079191212109
-0.6153895245982021
-0.01076035355287104
-0.6530374519166198
-0.175235932061269
-0.005600571085278438
-0.1307821432495879
-0.01710874520382093
-0.1211318108318193
-0.06781866174887068
-0.07529017003309901
-0.005246732402124322
-0.002770372898751056
-1.333186333182617
-0.01108390531302877
-0.1873672860072809
0.0004959607243592839
-1.015644909376066
-1.229405611379697
-0.0821761622486247
0.02030201788552123
0.1642381258325292
-0.004783343747928136
-0.02302883380103327
-0.004247274460157195
-0.2531746329604754
0.3662029543589516
-0.0407642307172703
-0.2098324289771028
-0.01495756153936525
-0.6590981733371831
-0.0755928733381622
0.1916304586248612
-0.2838947254523987
-0.04971267677918136
-0.0685877503479487
-0.01588341947303884
-0.02174735307058554
-0.5732935107303719
-0.1443058441180324
-0.08620664700716603
-0.1276952821440979
-0.5583651346315995
-0.04408043262691336
-0.9113931413648146
-0.0004852124814169343
-0.2368843400012167
-1.044847830347406
0.1699853045072892
0.2927003439364727
-0.1817693744430001
-0.1942916855342442
-0.2059541681861621
-0.06847043799853793
0.02305585528498089
0.05049611164176288
0.004155953910422672
-0.1652082417535611
0.02516716957578303
-1.351645369835099
-0.08487234050113983
-0.4714602309546669
-0.3284803725267801
-0.2035455379018978
-0.1752396299530257
-0.01692264100711766
-0.0154531022199124
-0.1055954269383929
0.1700126335517762
0.3858764183164019
-0.2206872162797044
-0.1418020305278634
-0.241161639049187
-0.06232106442287412
-0.1511983720423327
-0.162395285579668
-0.1252167405009558
-0.1211895821010318
0.4672890934961396
-0.2682384115879529
0.4300163423552939
-0.601484413151263
0.07006322764964777
-0.204765257827432
-0.06586563781383317
-0.07348627249787681
-0.8751882925205835
-0.2231177475794552
-0.1890938696421378
-0.3453770827793519
-0.4559793953464615
0.5706823334303873
-0.2047229305694186
-0.0002591856022770956
-0.07135842081377275
0.3428400818726675
-0.03802791642858207
-0.1287130049233053
-0.1782007481659782
-0.06378807911599285
-0.01651951340075301
-0.1931927419675079
0.1920265278462902
-0.0127682357520158
-0.09585969126465246
-0.1674976222365571
-0.3124737026171113
-0.3146645658115588
-0.06547899001161964
-0.01027054460389556
-0.07644003348305482
-0.6578572984233528
-0.6665315519813957
-0.3391185072790931
-0.05748349320769486
-0.05242200613479012
-0.02551889959824979
-0.06720891707395214
-0.0583888389212194
-0.3574201691961615
-0.9535385217857431
-0.01009011743428791
-0.08255066752766392
-1.133662124291321
-1.028050345537489
-0.1033419991079253
-0.03803245442352191
-0.07042698224699781
0.3913036658314156
-0.3458381232830576
-0.05104512609417201
-0.5959469351613019
-0.1236508508147453
-0.2543342382571093
-0.208815285322835
0.4744486326683568
-0.625157485142075
0.0721641511640079
-0.0296528067520374
-0.555476119166186
-0.05101541791657457
-0.359106230037417
0.1059934155102887
-0.1893461472849269
-0.05956679107131337
-0.1371556990865712
-0.3642804058844997
-0.08961374359161292
0.5137122223835685
0.08492689980283996
0.4714414708630452
-0.1106238749376209
-0.1986456916429962
-0.5237315045841837
-0.1294383295941198
0.02730079255230128
-0.05320668751135682
0.1035431221063312
-0.3097934141121505
0.2361293162193307
0.009322112744030154
-0.00331927409739261
-0.5156457729696099
-0.1866735122561168
-0.08626835169120685
0.5813383591058233
0.138098997256493
0.3469202348952419
0.2258165955540981
-0.5587046311480932
-0.2100661789935565
-0.2198341584449025
-0.2388806921575224
-0.05999089804218988
-0.697187643194877
-0.1955381591229877
0.3066619502765014
-0.2073566629923612
-0.01111355763892157
-0.1732602847780666
-0.009089017691512342
-0.1572900535165857
-0.4329247814749198
-0.07697952530132192
-0.1965355685404289
-0.07180706210569211
-0.09130213445113666
-0.1450488736757564
-0.07366906626055784
-0.4561647387096243
-0.4172183047039197
-0.02704534157144786
-0.07381589685395591
0.3259640917992527
-0.2456651667961316
-0.185113067074087
0.5260054929514357
-0.2079068230383808
0.01698931156010306
-0.4472935752947431
0.04508504099321926
-0.06263563765444802
-0.1527709678259121
-0.5801005699426958
0.1627324612838973
-0.5832681120330244
-0.5316554780243002
-0.1070027357386132
-0.5046957283920582
-0.03750679125956852
-0.1412490159427963
-0.4077021064616149
-0.01635933689198073
0.2859424211456727
0.4893448209038988
-0.1578627588559983
-0.008757350383994557
-0.07065994145355181
0.5253611844001012
-0.03356257744600848
-0.4367133380692306
-0.03284446272883879
0.4600465963781438
-0.01437311835204795
-0.540771549114353
-0.2440909672748474
0.1752116509921182
-0.3084661627996686
-0.177428144656827
0.05255526457500333
0.03402739267567157
0.05376077685811145
-0.2973297872753072
-0.1568344118432271
0.4127028811801615
)
;

boundaryField
{
    FrontBack
    {
        type            empty;
    }
    Top
    {
        type            zeroGradient;
    }
    In
    {
        type            zeroGradient;
    }
    Bottom
    {
        type            zeroGradient;
    }
    Out
    {
        type            fixedValue;
        value           uniform 0;
    }
    circle
    {
        type            zeroGradient;
    }
}


// ************************************************************************* //
