/*--------------------------------*- C++ -*----------------------------------*\
| =========                 |                                                 |
| \\      /  F ield         | OpenFOAM: The Open Source CFD Toolbox           |
|  \\    /   O peration     | Version:  2412                                  |
|   \\  /    A nd           | Website:  www.openfoam.com                      |
|    \\/     M anipulation  |                                                 |
\*---------------------------------------------------------------------------*/
FoamFile
{
    version     2.0;
    format      ascii;
    arch        "LSB;label=32;scalar=64";
    class       volVectorField;
    location    "49.1";
    object      U;
}
// * * * * * * * * * * * * * * * * * * * * * * * * * * * * * * * * * * * * * //

dimensions      [0 1 -1 0 0 0 0];

internalField   nonuniform List<vector> 
808
(
(0.896105 -0.0134889 0)
(0.99571 -0.0433612 0)
(0.976206 -0.239199 0)
(1.06623 0.013412 -2.43151e-21)
(1.50474 -0.232306 0)
(0.935458 -0.0173051 0)
(1.08904 -0.0617583 -8.84466e-21)
(1.14055 -0.0482069 0)
(1.37196 -0.185222 3.37229e-20)
(1.20942 -0.0414913 -8.56927e-21)
(1.12077 0.175057 1.17854e-20)
(1.40963 -0.191963 0)
(0.995632 -0.0444457 0)
(0.717514 -0.0224092 0)
(0.965483 0.0735833 1.16584e-20)
(1.06692 -0.0384182 0)
(0.81411 0.0607566 -4.41373e-21)
(0.956945 -0.0243361 -1.65831e-22)
(1.10191 -0.140744 0)
(1.09197 0.00838969 0)
(1.10101 0.134114 -1.64436e-20)
(0.924982 0.121039 1.16517e-19)
(1.0705 0.00895439 -2.09455e-20)
(1.15828 -0.0167161 0)
(0.955859 0.169011 0)
(1.37604 0.0639551 -2.1145e-20)
(1.28725 -0.120755 1.54315e-20)
(0.992328 -0.0223905 -1.13501e-20)
(1.03983 -0.00150782 0)
(1.04838 0.010413 -3.08781e-22)
(0.966571 0.0131358 8.60316e-24)
(1.10363 -0.00107047 0)
(1.07828 0.0462677 0)
(1.08085 -0.0149371 9.48667e-21)
(1.26444 -0.00452725 6.81739e-21)
(0.749762 -0.128753 1.08313e-19)
(0.845767 -0.0309083 -2.01464e-20)
(1.04533 0.0360558 2.48968e-21)
(1.18223 0.0624402 -6.42432e-21)
(1.13944 0.0462397 0)
(1.22207 -0.0276483 -1.12336e-20)
(1.26632 -0.0841485 0)
(1.00476 -0.0200335 -1.46043e-20)
(1.12985 -0.00713877 1.82937e-20)
(1.34872 -0.102461 0)
(1.00863 0.0153102 -2.67983e-20)
(1.00646 0.0351709 4.50724e-21)
(1.26429 -0.207076 2.61304e-20)
(1.16766 0.0543215 -1.42469e-20)
(1.41388 -0.0864459 -4.8717e-20)
(1.08095 -0.0422907 1.68263e-20)
(1.13609 -0.0455221 0)
(1.11134 -0.000560412 1.31407e-20)
(1.21168 0.025652 0)
(1.30847 0.223767 1.0104e-21)
(1.06653 0.0411208 -5.66996e-21)
(1.24568 0.113198 0)
(1.30574 0.0392901 3.23363e-21)
(1.22068 -0.0551179 9.19903e-21)
(1.13268 0.0217023 -2.26288e-21)
(-0.0890838 0.303497 0)
(1.22069 -0.189082 -1.26785e-20)
(1.24808 -0.016888 0)
(1.36494 0.0299435 -2.7739e-20)
(1.16459 0.00875371 -1.80702e-20)
(1.0313 -0.0295117 -1.45633e-20)
(1.44867 0.0216362 3.18535e-20)
(0.671817 0.020628 0)
(1.14097 0.0405379 0)
(1.51971 -0.315513 0)
(0.885608 0.0292437 -4.25445e-22)
(1.38516 -0.0812608 -5.65499e-20)
(0.99914 0.0547703 0)
(1.04999 -0.0269176 -7.74802e-21)
(1.14484 -0.328257 -4.75392e-20)
(1.06933 0.00123365 -3.27255e-20)
(1.11589 0.0153966 -6.36857e-22)
(1.31402 0.490303 2.45004e-20)
(1.07512 -0.0471479 0)
(1.00199 0.266596 -1.96576e-19)
(1.35989 0.0119251 9.18461e-21)
(0.746488 0.0112005 0)
(0.85312 0.0173221 -1.86505e-20)
(0.97465 -0.11364 3.8844e-21)
(1.07077 -0.0248418 2.56713e-20)
(1.14564 0.0139356 -1.11063e-22)
(1.4054 -0.201367 0)
(1.332 0.277531 0)
(1.07123 0.00892431 -2.0673e-20)
(1.40584 0.108072 2.41627e-20)
(1.06567 -0.00989472 1.34374e-20)
(1.30839 -0.0559565 -1.7035e-21)
(0.965514 0.0213029 1.92625e-20)
(1.003 -0.0252258 0)
(1.11005 0.00851184 2.78698e-21)
(1.36286 0.127983 -6.44869e-20)
(0.784594 0.00874187 -3.87817e-21)
(1.38435 -0.0731434 0)
(1.29266 -0.0274776 0)
(1.41928 0.060465 -5.36527e-20)
(1.06847 -0.0446405 -1.08944e-20)
(1.09628 0.0121598 -2.67514e-22)
(0.936129 0.0199454 1.35849e-20)
(1.13847 -0.00456922 7.48715e-22)
(1.20313 0.0130104 -3.39572e-21)
(1.00041 -0.00277242 2.04328e-20)
(1.51003 -0.146151 0)
(1.03141 0.267684 0)
(1.083 0.0303435 1.22752e-20)
(1.21863 -0.191891 -2.75336e-21)
(1.19333 0.0131516 -1.42212e-22)
(1.0331 0.0335139 -1.28047e-19)
(1.14465 0.0333961 -4.80454e-21)
(1.26222 0.214132 4.08622e-21)
(0.825406 0.0176096 0)
(0.922817 -0.0561958 7.41686e-20)
(1.12981 0.0166746 -1.18212e-20)
(1.51569 -0.202333 -2.45765e-20)
(1.13479 -0.0401619 -1.46009e-20)
(0.923395 0.0181729 1.7684e-21)
(-0.193955 0.246207 0)
(0.847142 -0.0185949 2.05099e-21)
(0.787127 0.0225613 0)
(1.0522 0.00591613 -1.00388e-22)
(1.01358 0.0274501 0)
(1.29769 0.31272 2.45534e-21)
(1.03975 -0.0433639 -2.927e-20)
(1.43217 0.18077 -2.1956e-21)
(1.14174 -0.0449253 0)
(1.08837 -0.018791 0)
(0.908841 0.158302 0)
(1.15286 -0.0319756 -6.42574e-21)
(1.20384 -0.0159404 5.74674e-21)
(1.06687 0.106782 -3.94691e-20)
(0.857476 -0.0391689 0)
(1.08386 0.019574 -3.12201e-21)
(0.962399 0.203774 3.28795e-21)
(1.05449 0.0599164 -5.06639e-21)
(0.987066 0.0302027 7.81132e-21)
(1.10282 0.0119993 2.24253e-22)
(-0.0157917 0.041154 0)
(1.08557 -0.00857874 -1.47012e-20)
(0.836471 -0.150703 2.29788e-21)
(0.708477 0.0264504 -7.55046e-21)
(1.25213 0.16324 4.7175e-21)
(1.14727 0.295835 2.14778e-21)
(1.04305 0.0234173 1.72099e-20)
(0.992258 0.0314806 0)
(1.19605 -0.359379 -1.47664e-20)
(1.16819 0.302603 0)
(0.934818 0.0306632 1.57268e-20)
(0.963608 0.26994 1.56771e-19)
(0.960249 0.0346795 0)
(0.822853 0.0838087 0)
(-0.121839 0.0533972 -6.47528e-20)
(1.33399 0.125984 -6.92157e-21)
(0.663265 -0.0211503 0)
(1.46969 0.0252767 0)
(0.969564 0.0173149 0)
(1.35064 0.0947427 8.14776e-21)
(-0.0614193 -0.178428 0)
(-0.0532374 0.0481125 2.87715e-20)
(1.25375 0.0902496 1.21955e-19)
(0.99408 0.0347206 2.51125e-21)
(0.856454 -0.0021957 0)
(1.04731 -0.0504777 2.05071e-20)
(0.87546 0.0213657 0)
(1.00037 0.0731637 -1.31705e-19)
(1.0305 0.0453546 2.2912e-20)
(1.17666 -0.0205808 5.5646e-21)
(1.08139 0.0163985 9.00682e-21)
(1.0132 0.0657031 -1.44574e-20)
(0.868711 0.382004 -2.13807e-21)
(1.14972 -0.339818 1.66086e-22)
(0.910262 -0.0131504 0)
(1.06269 0.0116144 -1.35611e-20)
(0.872962 0.00442524 -1.56864e-20)
(1.37387 -0.0949278 2.5864e-21)
(0.671506 0.0238853 0)
(1.19595 -0.110783 0)
(1.16799 -0.0536864 9.2394e-21)
(1.37642 0.208334 5.47917e-21)
(1.09797 0.0163767 7.39032e-21)
(1.03339 0.023269 1.80193e-20)
(0.810742 0.158896 -7.40554e-20)
(0.813636 0.00339279 2.64329e-20)
(1.12265 -0.0242601 1.20246e-20)
(1.29823 0.0442506 -3.85181e-21)
(1.14976 -0.016118 -1.06299e-20)
(1.25525 0.0117411 3.30066e-21)
(-0.116063 0.111848 4.58327e-20)
(1.21266 0.00281214 0)
(0.61955 -0.0102201 0)
(1.05691 -0.0163406 -5.74025e-21)
(1.0816 0.0122624 1.35074e-20)
(0.0411623 0.104492 0)
(0.883611 -0.0287361 9.55927e-22)
(1.18253 -0.0750054 -4.51099e-21)
(0.977057 0.00724777 2.1517e-21)
(1.07623 0.0309138 -9.60375e-21)
(0.996422 0.0241151 2.15162e-21)
(1.07043 -0.0636108 3.97924e-21)
(1.08356 0.0240809 0)
(0.504455 -0.00552921 0)
(1.04815 -0.069737 0)
(1.14381 0.100811 -2.02424e-20)
(-0.0599316 -0.170996 6.30498e-20)
(1.08431 0.0387828 -2.36781e-23)
(0.979991 -0.243482 0)
(0.745988 0.0253155 -1.49846e-20)
(1.01305 0.323703 1.78278e-21)
(0.0148228 -0.0401873 -2.10571e-19)
(1.00923 0.195482 -5.67749e-20)
(0.634632 -0.0149309 0)
(0.904836 0.306511 0)
(0.916575 0.0175746 1.38584e-20)
(1.17861 -0.0645851 8.33057e-21)
(1.26761 0.3904 -8.90768e-21)
(1.07083 0.188195 3.20778e-22)
(1.32462 -0.0524922 -2.25438e-23)
(0.949436 0.350579 0)
(1.34954 0.415558 -2.09346e-20)
(0.65676 -0.0186709 0)
(0.803008 -0.0175391 -6.07819e-21)
(1.10332 -0.0271119 1.88698e-22)
(0.610791 0.0101531 0)
(1.10002 -0.00648679 0)
(0.301418 0.413042 -4.64307e-20)
(1.30937 -0.262661 6.9996e-21)
(0.749368 -0.0137717 5.05767e-21)
(0.989712 -0.00514906 0)
(0.554455 -0.0100876 0)
(0.763346 -0.0123963 -5.67219e-21)
(0.564767 -0.0140163 -8.35983e-22)
(1.36026 -0.00143579 1.79623e-22)
(1.15607 -0.130343 1.50401e-21)
(0.726448 0.0161287 -2.85382e-21)
(1.2381 0.00115709 3.42773e-22)
(1.13206 0.0766088 -3.02209e-22)
(0.556443 0.011426 7.7524e-21)
(1.31615 0.0188817 -5.20122e-22)
(1.22314 -0.0936507 0)
(0.948657 0.208995 0)
(0.506194 0.0163 0)
(1.10919 -0.0222488 0)
(1.11721 -0.06539 -1.55351e-21)
(1.07749 -0.0719119 0)
(1.23799 -0.0551947 0)
(0.923405 -0.0312641 0)
(1.09183 0.222075 0)
(-0.03874 -0.0897419 6.6181e-20)
(1.0654 -0.0136286 1.30153e-21)
(0.928155 0.105124 0)
(1.18103 0.0161821 -6.09375e-21)
(1.09269 0.051787 3.50997e-21)
(1.11672 0.0354654 5.96951e-21)
(1.08117 -0.169722 7.52919e-21)
(0.976871 -0.099127 0)
(0.570252 -0.0128326 1.20205e-20)
(1.04929 0.0416985 1.40614e-20)
(1.2723 -0.269006 0)
(1.10038 0.164236 -1.27061e-21)
(1.19502 0.126152 6.07113e-21)
(0.803227 0.031262 1.85733e-20)
(1.17436 -0.0304476 9.99247e-21)
(1.038 0.0819842 -8.68582e-21)
(1.1589 0.170895 0)
(1.13388 0.198984 -1.69818e-20)
(1.2819 0.226435 3.67798e-21)
(0.775115 0.0051189 2.46517e-21)
(0.855605 -0.312011 0)
(0.000347311 -0.0235838 0)
(0.965766 0.105669 -1.85455e-20)
(1.08812 0.0606509 0)
(1.28226 -0.171471 1.82408e-20)
(1.31961 0.116651 -1.5015e-22)
(1.01128 0.166176 8.34892e-21)
(1.17852 0.0963301 -5.85928e-21)
(1.31962 0.147104 8.33814e-20)
(1.03395 -0.330118 4.7995e-20)
(1.10356 -0.0699792 -4.42938e-22)
(0.794685 -0.322671 0)
(1.00207 0.0293317 0)
(0.904579 0.00315842 -2.96002e-20)
(1.41093 -0.328774 -7.10972e-20)
(1.00775 -0.0585578 0)
(0.764313 0.349787 9.88337e-21)
(0.722237 0.152411 0)
(0.855315 -0.340668 1.886e-21)
(0.749698 0.218673 -1.24477e-20)
(0.809278 0.0160458 -9.0322e-21)
(1.09427 -0.178547 0)
(1.28009 0.13296 1.75161e-22)
(1.20214 0.0125194 -9.13475e-22)
(0.936908 -0.293361 6.66376e-21)
(1.02962 -0.0685682 -6.93462e-21)
(0.760524 -0.375246 0)
(1.09002 0.0656285 0)
(1.20676 -0.271958 3.7712e-21)
(0.931989 -0.361219 -1.90522e-21)
(1.2444 0.206034 -4.83825e-21)
(1.06782 -0.0509223 -6.36737e-21)
(1.01044 -0.117116 -5.94744e-22)
(1.01887 0.0402988 0)
(0.472951 -0.150419 1.77904e-20)
(1.33332 0.0707781 -1.03619e-20)
(0.73039 -0.148394 -4.49182e-21)
(0.407129 -0.340309 -1.96437e-20)
(1.40287 -0.0175414 2.77036e-20)
(0.990263 0.0943045 6.69288e-20)
(1.16683 -0.220535 -4.14476e-21)
(1.05331 -0.0785615 7.76952e-22)
(-0.069437 -0.145025 -1.09158e-20)
(0.998686 -0.00600059 0)
(1.03488 -0.0890158 -1.50447e-20)
(0.830873 -0.036119 2.22641e-20)
(1.09776 -0.0232506 9.20332e-21)
(1.01531 -0.208874 3.06104e-21)
(0.54007 -0.0258975 1.41646e-21)
(1.45753 -0.353278 -1.82008e-20)
(1.04446 -0.0199989 0)
(1.04461 -0.0155856 -8.56139e-22)
(1.12502 0.0144198 -4.93056e-21)
(1.03882 0.00423859 0)
(0.87992 -0.0274896 -8.93304e-22)
(1.08588 0.0250153 5.80441e-21)
(0.893164 -0.0255645 -2.21424e-20)
(1.1183 -0.073602 -1.24596e-20)
(0.869986 -0.222212 2.05087e-21)
(-0.0519602 -0.101489 0)
(0.45747 -0.37142 8.464e-21)
(1.12787 -0.043057 0)
(1.05153 -0.0967373 1.48692e-20)
(1.13076 0.0926537 0)
(1.12169 -0.0340893 1.28142e-20)
(1.01562 0.0257193 0)
(1.01067 -0.161535 0)
(1.35395 -0.0188628 1.84289e-20)
(0.806843 -0.0985115 0)
(1.02343 0.305169 1.17823e-20)
(1.16667 0.00277912 5.832e-22)
(1.01967 0.0067625 5.92533e-21)
(1.3304 -0.168982 -1.32605e-20)
(1.23688 0.115613 1.48403e-21)
(1.25353 -0.1674 -1.20279e-20)
(1.03319 0.0203673 0)
(1.0865 -0.0352597 0)
(1.04006 0.0743399 3.2108e-21)
(1.20671 -0.0808802 0)
(1.4017 0.214949 -1.76396e-20)
(0.918287 0.110252 4.59528e-21)
(1.02732 0.0117198 2.88756e-20)
(1.18101 -0.0187599 1.7533e-22)
(-0.00977204 -0.0561049 0)
(-0.0489243 -0.144928 0)
(0.19606 0.343548 -5.94743e-20)
(-0.0537403 -0.106369 0)
(0.752627 0.342406 8.38121e-21)
(1.16072 0.0420514 -3.98295e-21)
(1.06262 0.00518217 -9.8312e-21)
(1.12204 -0.179073 -7.23579e-21)
(1.16498 -0.115783 0)
(0.723409 -0.0247734 -4.3449e-21)
(1.07665 0.0987604 0)
(1.09205 -0.00731249 6.82723e-22)
(0.583164 -0.112953 0)
(0.734397 0.358845 -2.21059e-22)
(1.10152 0.111619 0)
(1.23728 0.0329358 0)
(0.316276 0.134842 2.12204e-21)
(0.698755 0.441897 -4.91753e-22)
(0.945523 0.303919 4.45112e-21)
(1.00821 0.0178303 -9.12988e-21)
(0.397325 0.0141213 0)
(1.15835 0.163759 -3.63953e-21)
(1.23353 0.00822663 7.86449e-21)
(1.25615 -0.0128927 3.11953e-21)
(0.537413 0.190127 9.27334e-21)
(-0.0702936 -0.12663 -1.23649e-19)
(1.18536 0.0965053 0)
(-0.0247646 0.0188549 0)
(1.23745 0.0572809 9.21064e-21)
(0.575419 0.139698 -9.97686e-21)
(1.18061 0.0199629 -2.04444e-20)
(1.08401 -0.0364791 0)
(1.07156 0.0899617 6.82714e-21)
(1.29743 -0.405161 1.41039e-20)
(0.71682 -0.00260839 -1.37995e-20)
(1.11587 -0.0463107 -6.76548e-21)
(1.06359 -0.0827685 -8.05183e-22)
(0.623828 -0.507032 1.49183e-20)
(1.11747 -0.0142302 -2.96538e-20)
(1.12905 0.0187835 0)
(1.15494 0.112361 0)
(1.11188 -0.110413 -3.02016e-21)
(1.23605 0.0182591 -7.10733e-21)
(0.789392 -0.382098 -4.64513e-20)
(1.19185 -0.0813784 -7.9162e-21)
(1.14522 0.0511423 1.38658e-20)
(0.520771 -0.000243098 2.40533e-20)
(0.327387 0.398188 -1.81256e-20)
(0.664531 -0.213532 3.42932e-20)
(1.16379 0.179917 -6.22627e-21)
(1.27452 -0.492732 1.07087e-20)
(1.2091 -0.00680927 2.24566e-21)
(1.13414 -0.0815166 3.57917e-21)
(0.951819 -0.245074 8.99071e-20)
(-0.0990964 -0.0841481 0)
(1.21839 0.0698804 6.67663e-22)
(0.121684 -0.266912 -8.35878e-21)
(1.22955 0.108776 -7.97062e-21)
(1.23338 -0.154162 3.44379e-21)
(1.06955 0.0194367 0)
(0.382847 -0.137706 0)
(1.14421 -0.0297691 0)
(1.40719 0.0391309 -5.69977e-21)
(1.18699 -0.00641454 -9.83687e-24)
(1.09712 -0.053899 7.9049e-21)
(0.490568 0.0168512 0)
(0.655192 0.0033121 0)
(0.647639 0.0012701 2.58652e-22)
(0.453816 -0.00993377 0)
(1.27335 0.0253109 0)
(1.01942 -0.0107907 2.2984e-20)
(0.379595 -0.301144 0)
(0.962398 0.0564143 0)
(1.10237 0.070538 0)
(1.16467 0.172391 -1.84133e-20)
(1.19869 0.00330752 -7.43564e-21)
(0.946255 -0.035293 1.41254e-20)
(1.38581 -0.395796 -1.44545e-19)
(0.537018 -0.348918 -3.46237e-22)
(1.12958 0.140751 7.17039e-21)
(1.02484 0.245013 0)
(0.350046 -0.432287 0)
(-0.182294 0.560601 0)
(1.13205 -0.0527489 8.3954e-21)
(1.35222 -0.259378 -4.97839e-20)
(1.27544 -0.0687717 0)
(1.04141 0.0443795 -1.41818e-20)
(0.839442 -0.199527 0)
(1.51495 -0.0672426 9.65952e-20)
(0.408359 0.511608 1.31187e-19)
(0.438302 -0.0215642 0)
(1.19669 -0.271302 1.55223e-19)
(-0.049421 0.191113 0)
(0.313738 -0.599346 -1.68031e-21)
(1.25728 -0.0478376 0)
(-0.133401 0.389894 1.04212e-20)
(0.984682 -0.0517667 0)
(1.21468 -0.191602 -5.77391e-21)
(-0.187162 0.0533293 -1.08875e-20)
(1.10702 -0.0517255 4.88394e-21)
(0.985321 0.290964 -8.84544e-21)
(0.593049 -0.543588 -8.7518e-20)
(1.07945 0.123505 -4.88335e-21)
(1.1909 -0.0948673 1.13357e-21)
(1.16399 0.237656 -3.0763e-20)
(1.18616 -0.275292 -1.88114e-21)
(1.1524 -0.0541952 2.41414e-21)
(0.246945 0.191528 -7.69422e-20)
(0.0209786 0.115192 -5.97147e-21)
(1.26883 0.24362 4.91658e-21)
(1.05477 -0.0395504 0)
(0.827501 0.370771 2.60526e-21)
(1.47199 -0.422565 1.15214e-19)
(1.12623 -0.0163239 -8.79414e-20)
(1.42502 0.159548 4.84502e-20)
(1.05361 -0.0119007 1.14195e-20)
(1.02255 0.134184 2.27821e-20)
(1.05833 -0.0112127 0)
(1.14043 -0.0105455 0)
(1.10373 -0.18113 -4.14745e-21)
(1.08666 -0.0182782 -4.50898e-21)
(1.16522 -0.254933 2.06097e-21)
(1.09468 0.068067 -1.08636e-20)
(1.30677 0.0587678 -2.44828e-20)
(0.415481 0.0121787 0)
(0.992896 -0.0489347 2.41345e-20)
(1.19608 -0.0567897 0)
(1.11013 0.0681567 -7.94355e-21)
(1.13637 0.0120657 0)
(1.03656 -0.00761788 1.31363e-20)
(1.22832 0.022708 1.78598e-21)
(0.958281 0.162716 0)
(0.0880878 -0.0248113 2.13917e-19)
(0.889337 -0.225627 -7.05199e-20)
(1.23667 0.160438 -1.78997e-20)
(-0.144371 -0.00532658 4.65918e-20)
(1.14983 0.0134309 -1.94569e-22)
(0.848657 0.244861 -4.94321e-22)
(-0.120161 -0.00350401 -4.85524e-20)
(-0.0192699 -0.045234 -2.74765e-20)
(1.02364 -0.0248856 0)
(-0.0369406 -0.058355 0)
(1.07734 -0.0336813 0)
(0.114883 -0.124766 0)
(1.09718 -0.0364908 0)
(0.210895 0.0437051 0)
(1.12274 0.0245418 0)
(1.03915 -0.136861 0)
(1.40387 0.0659066 2.47366e-21)
(0.627325 -0.306954 -2.83604e-20)
(-0.141801 0.210525 0)
(1.31612 -0.00657907 9.15562e-20)
(1.14536 0.108675 6.31501e-21)
(1.09374 0.0675067 0)
(-0.0394549 -0.0516487 0)
(1.15278 -0.0049528 -7.35986e-21)
(1.15799 -0.0319497 2.30688e-21)
(1.15631 0.379902 0)
(0.463633 -0.0325449 9.32397e-20)
(1.11996 0.0557775 2.21715e-21)
(0.292277 -0.0532903 -7.08528e-20)
(-0.0561436 0.0240976 -2.64075e-20)
(-0.034944 0.0481639 7.05771e-20)
(0.0920085 -0.458132 -9.4193e-21)
(0.891766 0.387982 4.65129e-22)
(1.14731 0.0517895 -1.6406e-20)
(1.02391 -0.00943923 0)
(1.0729 -0.0525797 -1.90637e-20)
(1.20335 -0.0374309 7.99234e-21)
(-0.0174502 -0.0795813 1.22225e-19)
(0.976733 -0.0717096 -5.58806e-20)
(0.956101 0.309088 -3.68592e-21)
(1.20361 0.206112 1.71366e-21)
(0.117662 -0.0269971 4.8618e-20)
(0.310186 -0.0339673 -6.62189e-20)
(0.627004 0.0114813 -8.47436e-20)
(1.34858 0.094921 -1.38756e-21)
(-0.0569519 -0.0518068 0)
(1.2173 0.34102 -5.98015e-21)
(0.923528 -0.198272 3.71062e-20)
(1.07955 -0.149398 -3.57832e-20)
(1.18504 0.112199 0)
(1.52787 -0.150207 1.01605e-19)
(1.16793 0.0356585 -4.27598e-21)
(-0.0287317 -0.0901921 -4.43431e-20)
(0.243661 0.0913066 0)
(0.920612 0.0335561 -3.16595e-21)
(1.1083 0.0150282 3.29607e-21)
(1.17816 -0.321116 2.49024e-20)
(1.16076 -0.0128369 3.90261e-21)
(1.11541 0.0396776 0)
(1.27266 -0.139003 -2.0648e-20)
(-0.076042 -0.0112134 -1.02387e-19)
(1.2396 0.0264802 1.05985e-20)
(1.09429 0.161527 -8.36327e-21)
(1.07902 0.0737172 1.24246e-20)
(-0.0512775 -0.106006 2.24049e-20)
(-0.0089796 0.000846082 -5.53837e-20)
(0.736187 0.249949 0)
(0.425059 -0.063874 0)
(1.14825 0.094755 -2.68982e-20)
(1.05171 0.0618724 1.71562e-20)
(1.07189 0.0133324 0)
(0.770423 0.295669 5.46998e-20)
(0.710877 0.0806133 -9.00592e-21)
(1.09693 0.104582 0)
(1.06464 0.0681519 0)
(1.09156 -0.0173869 0)
(1.17783 -0.106914 0)
(1.04223 0.0997138 3.95791e-21)
(-0.0418425 0.0384812 2.88355e-20)
(1.33195 -0.0178136 5.22598e-21)
(1.49587 -0.0957014 -1.13628e-19)
(1.07077 0.0072645 -7.06302e-21)
(0.119633 0.340088 0)
(0.982933 -0.0370511 0)
(0.648431 -0.0115786 -1.7785e-21)
(0.530694 0.0074573 -5.09413e-20)
(0.0691686 0.0362953 4.19054e-20)
(0.953587 0.00131524 1.37044e-21)
(0.820268 -0.286126 0)
(0.779395 -0.0881666 0)
(1.00176 -0.102446 0)
(0.53633 0.508614 1.13827e-20)
(-0.00422553 -0.0212287 -2.88619e-20)
(1.06462 0.180929 -5.13075e-21)
(-0.0369222 -0.138669 8.71081e-20)
(1.1663 -0.0613309 3.40118e-21)
(1.16009 0.30333 5.86771e-20)
(1.10974 -0.067109 7.39587e-21)
(0.53639 0.183153 1.00552e-19)
(1.18071 0.305619 7.37945e-22)
(0.793821 0.187636 0)
(0.554828 0.269578 0)
(0.9123 0.101974 -1.41687e-21)
(-0.258567 0.224522 0)
(0.614984 0.0303601 4.46305e-21)
(0.641909 -0.44322 -4.52626e-21)
(0.235176 0.0490243 -9.95793e-20)
(1.14148 -0.214449 2.10703e-20)
(1.02865 0.353278 1.10986e-20)
(0.986007 0.00971196 0)
(1.18041 0.189532 -5.7506e-22)
(0.669516 0.0116253 0)
(1.03037 -0.0105743 -3.19847e-22)
(0.568885 -0.00122165 0)
(0.718427 0.112937 0)
(0.990084 -0.0286575 -1.07739e-20)
(1.42392 0.169172 -7.35491e-21)
(1.12522 -0.0800746 4.17545e-21)
(0.548522 -0.519257 0)
(1.13665 -0.137829 4.12355e-22)
(0.80418 0.365138 7.48514e-20)
(-0.0393912 0.0165631 9.92705e-22)
(1.22158 -0.0610227 3.16003e-21)
(1.22116 0.0213411 -3.59673e-22)
(1.20232 -0.178619 1.02726e-21)
(0.814844 0.00782376 -1.01737e-20)
(0.0603714 0.0181489 3.16935e-20)
(-0.0229959 -0.0996401 -6.71974e-20)
(-0.172148 0.289756 0)
(-0.138033 0.394371 0)
(1.24312 -0.627439 4.17631e-20)
(1.1376 -0.0363123 -2.35568e-21)
(0.954219 -0.487583 -5.94145e-20)
(1.17315 0.260646 1.13099e-20)
(1.3587 0.194403 2.51393e-20)
(0.599842 0.417351 0)
(0.243511 0.405928 -1.22511e-19)
(0.593736 0.465493 0)
(0.0248378 0.216924 0)
(1.15358 -0.476271 0)
(-0.0450646 -0.0234787 5.2329e-22)
(1.16138 0.00355173 0)
(0.623787 -0.30341 6.19493e-21)
(0.589715 0.681916 1.97783e-20)
(1.18994 -0.0897718 -4.38552e-23)
(-0.0161041 -0.15693 -1.61764e-19)
(0.626066 -0.33837 -1.86247e-20)
(0.447488 0.14364 -1.19798e-20)
(1.20371 0.0830991 0)
(1.35355 0.354281 2.32402e-20)
(1.21536 0.560199 -1.22331e-21)
(0.157233 -0.0234187 -1.83588e-20)
(0.978003 0.133349 2.2409e-20)
(0.986655 -0.0364318 1.91589e-21)
(0.917889 0.000938239 -6.96817e-22)
(0.0255412 -0.0389789 0)
(0.668793 -0.680651 -2.70822e-20)
(0.616285 0.183319 0)
(0.264042 -0.0145847 0)
(-0.0336221 0.0150052 0)
(0.0561801 -0.109841 -6.33138e-20)
(1.2364 -0.024422 -3.71141e-21)
(-0.0377492 0.012536 0)
(-0.0153864 -0.0057729 0)
(1.44931 0.117128 -4.52844e-20)
(-0.0265892 -0.125358 7.24866e-20)
(0.113343 0.223878 -1.04481e-19)
(0.383025 0.00995542 0)
(0.176155 -0.298994 7.92671e-20)
(1.205 -0.23412 0)
(1.00885 -0.28539 0)
(0.0768475 -0.103633 1.55528e-19)
(1.14599 0.0261417 -4.01643e-22)
(1.11053 0.332574 3.28926e-20)
(0.257687 0.0275549 4.05846e-20)
(0.420039 -0.543918 -2.80837e-20)
(1.29031 0.0831414 0)
(1.21029 0.196355 1.78935e-20)
(1.21286 0.210093 -2.198e-20)
(0.102074 0.0727598 -2.38004e-20)
(-0.0822858 -0.0383602 0)
(1.07181 -0.0487032 -1.8242e-20)
(1.11153 -0.215441 -1.05375e-20)
(0.597899 -0.42784 0)
(1.1003 -0.147537 -2.28749e-20)
(-0.0502921 0.369136 0)
(0.55251 0.0319146 0)
(1.23534 0.0438136 4.4506e-21)
(1.00311 0.0330573 7.11743e-22)
(1.07244 0.736296 -2.29419e-20)
(0.234045 -0.400412 1.22294e-19)
(1.13545 0.0522071 7.54986e-23)
(1.20264 0.0690939 -5.02941e-21)
(-0.0325112 0.0110535 2.67152e-20)
(0.781859 0.726084 3.60567e-20)
(1.39068 -0.334169 -1.62782e-20)
(-0.0414856 0.463949 4.7936e-20)
(1.14208 -0.00503674 0)
(0.326993 0.213689 -6.41732e-21)
(0.951058 -0.663504 4.08268e-21)
(0.894678 0.637379 -1.03326e-20)
(0.686089 -0.00871677 -8.97178e-20)
(1.13338 -0.0149437 -1.82425e-20)
(1.07656 -0.0737704 6.15088e-21)
(1.16772 0.0266866 7.00665e-21)
(1.10372 0.115054 8.7214e-21)
(1.13736 -0.103691 0)
(0.901761 0.106491 1.13841e-20)
(0.88113 0.456728 0)
(1.3368 0.00570351 -2.10271e-21)
(1.16586 0.104558 6.20481e-21)
(0.74582 0.263087 0)
(0.514306 0.109417 9.49503e-20)
(0.888607 0.703262 -1.0437e-21)
(1.06382 0.279331 -2.52609e-20)
(1.03772 -0.00240163 1.21238e-20)
(0.41388 0.475216 0)
(1.34048 -0.458264 0)
(0.947101 0.0402454 6.76442e-21)
(1.2573 0.501784 0)
(-0.0201638 0.02725 -3.46537e-20)
(1.31947 -0.401884 -2.91186e-20)
(1.15965 0.502602 0)
(0.45591 0.197609 1.73452e-19)
(1.11697 0.315813 -1.02981e-19)
(0.838457 -0.660732 -2.11859e-20)
(1.16492 0.0122048 4.93298e-21)
(0.909253 0.151386 6.86364e-20)
(1.07917 0.161642 6.47156e-20)
(1.06509 0.698113 3.40079e-21)
(0.927327 -0.452568 5.7824e-20)
(1.42283 0.183746 2.37583e-20)
(1.12583 -0.00324444 -2.75121e-21)
(0.0392922 -0.0824471 1.36285e-19)
(1.1263 -0.72014 4.7948e-20)
(0.901777 -0.743304 3.98362e-20)
(0.260812 -0.363725 0)
(0.976375 -0.155166 6.85622e-20)
(0.361568 0.288218 -4.50284e-19)
(-0.0515792 0.306712 3.24478e-20)
(0.210601 0.019607 1.65169e-20)
(0.801532 -0.0471104 -1.03611e-19)
(1.07326 0.521347 0)
(0.978587 0.210551 8.86555e-20)
(1.08429 0.0257772 5.57283e-21)
(0.908147 0.431247 -9.64993e-20)
(0.820522 -0.755773 -5.62401e-21)
(0.936543 0.0104936 -4.91005e-20)
(0.974153 0.479506 0)
(1.19961 -0.155785 1.04073e-20)
(1.42838 -0.502299 1.90121e-20)
(1.24876 -0.325729 1.35327e-20)
(-0.123094 0.408474 3.52525e-20)
(0.19795 -0.0222559 -1.83309e-20)
(0.983612 -0.125723 -5.76156e-20)
(0.348809 0.511351 0)
(0.925747 0.000653166 3.91224e-20)
(1.1506 0.633026 6.39621e-20)
(-0.0341649 0.0746051 2.18747e-19)
(-0.0586053 0.00586844 -2.21757e-20)
(-0.120145 -0.102354 5.2377e-20)
(1.09847 0.0179964 -7.79942e-21)
(1.20489 -0.472021 0)
(1.10214 -0.750438 -2.56236e-20)
(0.698159 0.334451 0)
(0.157674 0.0699688 -1.65606e-19)
(1.11692 0.0487826 5.70187e-21)
(-0.0544941 -0.158627 -4.17884e-20)
(1.04804 0.0521613 -1.1671e-20)
(0.10154 0.00935092 4.51423e-20)
(0.838487 0.125425 0)
(1.23331 0.082336 2.3933e-20)
(0.0286069 0.0142389 -1.87544e-20)
(-0.177778 0.443639 -4.19025e-20)
(-0.28642 0.462892 0)
(0.14047 -0.0101864 0)
(1.22075 0.0206325 -8.9551e-21)
(0.477943 0.000682821 2.15723e-19)
(1.31843 -0.738064 -4.63333e-20)
(1.09704 -0.0100165 5.4465e-20)
(1.05718 0.238753 -3.70399e-20)
(0.383461 -0.590185 1.33911e-19)
(1.54218 0.2831 -2.56855e-20)
(0.173547 -0.072136 5.38364e-20)
(0.207579 0.285177 2.00958e-19)
(0.206941 -0.039719 -1.99126e-19)
(0.963245 -0.50505 -4.04374e-20)
(1.44492 0.386945 2.61474e-20)
(0.592388 -0.707279 4.38928e-20)
(1.10629 -0.0637763 -6.6413e-21)
(0.517476 0.199849 9.01597e-20)
(1.17382 0.291323 -4.05202e-20)
(0.658143 0.626949 -4.399e-20)
(1.40524 -0.630072 0)
(1.41101 0.519131 2.88563e-20)
(1.08225 -0.537199 -1.4034e-20)
(1.3821 0.604222 -7.69426e-20)
(1.14602 -0.000952395 0)
(-0.0405801 0.0283767 0)
(1.24534 0.724528 0)
(1.23035 -0.10764 -4.61738e-21)
(0.758396 -0.320552 -2.01927e-19)
(0.483594 -0.102974 0)
(-0.0435952 0.0322874 -2.26472e-20)
(1.0306 -0.245537 8.9463e-20)
(-0.14977 0.354306 0)
(0.324362 0.00262898 1.23828e-20)
(1.12683 0.0124424 0)
(1.40597 0.276526 0)
(1.16189 0.0142971 -5.28291e-21)
(0.370756 -0.318333 0)
(1.00535 0.139873 4.33483e-20)
(1.29942 0.285595 0)
(-0.0722092 0.043451 1.90387e-21)
(0.826679 -0.41531 0)
(1.50832 0.339312 -3.8926e-20)
(1.2245 0.360934 7.77456e-21)
(0.837378 0.634683 -1.06201e-20)
(0.999363 0.148612 -9.7763e-20)
(0.970365 -0.208257 -4.37664e-20)
(1.4429 0.292413 2.29172e-20)
(0.967614 0.113711 0)
(0.56821 -0.0905225 0)
)
;

boundaryField
{
    FrontBack
    {
        type            empty;
    }
    Top
    {
        type            noSlip;
    }
    In
    {
        type            fixedValue;
        value           uniform (1 0 0);
    }
    Bottom
    {
        type            noSlip;
    }
    Out
    {
        type            zeroGradient;
    }
    circle
    {
        type            noSlip;
    }
}


// ************************************************************************* //
