/*--------------------------------*- C++ -*----------------------------------*\
| =========                 |                                                 |
| \\      /  F ield         | OpenFOAM: The Open Source CFD Toolbox           |
|  \\    /   O peration     | Version:  2412                                  |
|   \\  /    A nd           | Website:  www.openfoam.com                      |
|    \\/     M anipulation  |                                                 |
\*---------------------------------------------------------------------------*/
FoamFile
{
    version     2.0;
    format      ascii;
    arch        "LSB;label=32;scalar=64";
    class       surfaceScalarField;
    location    "1815.5";
    object      phi;
}
// * * * * * * * * * * * * * * * * * * * * * * * * * * * * * * * * * * * * * //

dimensions      [0 3 -1 0 0 0 0];

oriented        oriented;

internalField   nonuniform List<scalar> 
1171
(
-0.9279299891106544
0.9279299891606331
0.7872821981912145
-1.098759087846459
0.3114768894465753
-0.1949344507106742
-0.7666456809814446
0.9615801317237436
0.07207001423778539
-0.1171819523079504
-0.2117775174301212
0.3289594704270441
-0.7872822098368999
0.0693329295032159
0.7179492803182218
0.8109662803130604
-0.1774042807910614
-0.6335619994327444
0.8743304945009759
-1.043523150338689
0.169192655789494
-0.2847639581745168
-0.09768135644151392
0.3824453141945867
-0.03591985762369769
0.5483910643417542
-0.512471206625568
-0.5050688703137379
0.8276618994971782
-0.3225930292377707
-0.4019459156915722
1.045793229118229
-0.17146273466856
0.3958840623437545
0.04808500409472969
-0.4439690650625416
1.046402702919268
-0.0006094741538190311
0.4457750573635206
-0.04989099213068505
1.057000477393811
-0.01059777136407271
0.5776830110642387
-0.7726174675127822
-0.7244211080688204
0.557182957993049
0.1672381501692648
0.2214555307807056
-0.7265243934339962
0.5503535880414748
-0.9227136514950622
0.3723600643734806
-1.094172939610742
0.6863894618955192
0.4077834775927751
-0.5953512697572609
0.559431405254002
0.01812594857384828
-0.2568638012769527
0.2387378538082879
-0.02457628143281784
-0.5225426001983685
0.5471188820709222
0.399923596955957
-0.4976049595728553
-0.9187430544086627
0.9414255192648212
-0.02268246488508998
1.06767131989748
-0.01067084078464324
0.9351976009187782
-1.116962460472748
0.1817648596431329
1.067306879668733
0.0003644441936889778
-0.6643221168935786
-0.06009899253230174
1.262131887824232
-0.8643939782920823
-0.397737909527481
0.1485638300319524
-0.1089283979196432
-0.3259379045897605
0.4348663021430034
-0.285749082198438
0.1910830760197987
0.0946660056566799
-0.583388127317637
-0.5153709550300639
1.014082919948697
-0.07888531834289075
0.009938944842789937
0.8254344333978073
-0.835373378296443
0.5718372731265428
0.6902946122509082
0.4394626628901827
-0.03040067094804706
0.4303242680763842
-0.8076710437718778
-0.1026060206725371
0.9102770645363764
0.5027038750821747
0.2537881685633268
-0.7564920436391358
0.003856893382536629
0.5291242152284522
-0.5329811079924727
-0.4898675971943744
-0.6043053406182359
-0.4229080328126816
-0.6940544279538505
-0.02734496528663021
0.2702309701359039
-0.2428860058382841
-0.9248644224052496
-0.005179541599944819
0.9300439639397706
0.3079627605817779
0.07448254722325806
0.7623984036250342
0.04856788136881982
-0.5330753750482208
-0.06227589641510703
0.04633872381031377
-0.8540097668042665
0.07609646064300742
0.8620515258719879
-0.9381479865400608
-0.3474049811472737
-0.04124357851302615
0.3886485594712603
-0.6824087939028383
-0.2424556325655593
-0.6313529394485917
0.7074494020942964
0.6091009173361678
0.2185609890946582
-0.5428718841009997
0.9462075380975254
-0.7794242549835162
-0.1667832831634134
0.02239629993165425
-0.01510052911978201
-0.007295770157738454
-0.4029282077347325
-0.09467675160418219
-0.2417909083957962
0.8508918309037887
0.04654296799116365
0.3347482787761136
-0.3812912472826336
-0.4604452424416643
0.96314912216252
0.680090414090505
-0.7826964327540662
0.3188040718899544
-0.01650464960546001
-0.3022994225614565
0.9306721766010849
-0.9306721766206442
-0.7830382606874443
0.1109508328691816
-0.3227283540720206
-0.7500522394126821
0.7599911822564898
-0.09054737695224571
-0.1427602911652154
0.2333076673636586
0.8649720582205979
-0.03953762810089616
1.054368488192815
-0.8005803128636554
0.186009260193546
-0.3155488095418318
0.1295395495732996
0.8593115688743845
-0.09691316411656453
-0.6117858332300575
-0.03936149423904326
0.6511473274339985
0.1238553536858259
-0.2311070560334972
0.1072517035800429
0.8056531135339391
-0.9830573906317241
-0.4352868315699505
0.3295764950932009
0.1057103370921667
0.5316551834088987
-0.5562314628014472
1.022126415921941
-0.4562655895359258
-0.5658608264036427
0.5992183842637604
-0.7193292335361818
0.06671567269632812
0.6526135604632837
0.1028195313923904
0.5705250008769279
0.05473143993752396
-0.6252564406513588
0.1942986836541506
-0.08334784895406844
-0.493153129843669
0.145748149432927
0.05036836450406812
-0.8868433956735683
0.8364750312470669
-0.4744576020215479
-0.7134576271826851
0.04913550907083213
0.4365841449549069
-0.006259880265558008
0.2999094992799897
-0.8552566126681075
0.5553471135841886
0.4157166768160665
0.5842833232663719
0.5605730151966384
-0.5142342865572104
-0.3653470354838687
0.03517377119490539
0.3301732611989018
0.6813631538471123
0.2493090222661118
-0.5664513990874268
0.5703082931780635
0.1106462392030835
0.8749860515174892
0.01026678612954357
-0.6220526212837362
-0.7493273838283994
0.7996957497924487
0.5311635017088207
0.07140503301126377
0.3013009308355386
-0.3727059636201667
-0.167620303064385
0.4419441377002873
0.08718006784144461
0.875779453016209
-0.7974290308571025
-0.0783504220789049
0.6354969321937376
0.3107106048075109
-0.4302731723696078
0.57553096396929
-0.504125930409404
0.4171608776594676
0.1331927157559513
-0.04691186405466755
-0.5894952905709016
-0.1381940873187815
0.7276893778959761
-0.1496889366039395
-0.7809832430355648
-0.6110437952599983
0.3606736425444527
0.2503701514913662
0.6222935321486023
-0.6120267455554703
0.2384120980063325
1.011501109448183
0.04286737980941013
-0.7493273812048997
0.2218869083706538
-0.1994906128388683
0.6800904126791223
0.8021436473917862
-0.8021436474686767
0.837707882822904
-0.8333262135664196
-0.00438166917483059
-0.4453779513834227
0.8610946279478727
-0.1476418911598905
-0.3455112414330464
0.734719935833434
-0.668474686981099
-0.06624524892386378
-0.7316395429116377
0.1421442524970525
0.1387494635655216
-0.6718248384956251
0.782696420216678
-0.9503167233438312
-0.3649384949210121
0.2888082572031869
0.07613023619198628
0.145909852586043
-1.009541499287236
0.863631646732359
0.4807767779478333
-0.04131411514583425
-0.3081767986085457
0.5864404743596028
-0.2782636756034235
-0.7383092445370348
0.8842190954751055
-0.1571307240530244
0.7347175544450525
-0.8386486211232415
0.103931066681901
0.9779764309092621
-0.5418863751425329
-0.4360900558472059
0.7552317858217327
-0.0648696653377562
-0.03479178221280826
0.1879018721509214
-0.1531100904309125
-0.7757335205068295
-0.845532362052707
0.07888667488363502
-0.7500522399612506
0.5140898765552369
-0.5553334583820151
0.0899492668259847
0.7189047049094041
-0.8088539715894628
0.7537090374900134
0.1742209702199846
0.5028779513598505
0.4971220486146863
-0.05225013277745968
-0.6057767923562736
0.658026925702798
0.880312533066017
-0.004533076605350646
-0.7552317858035741
0.7996957498599835
0.1910728385450293
-0.4479366366918339
0.01987137290440079
0.001151589659105036
-0.02102295828145849
0.5893238048114045
-0.4384100227078153
-0.1509137815794041
0.71794928728313
0.0141377820714231
-0.1108148066238753
0.4375488920902783
0.151774914036474
-0.01357580622156629
-0.006239883977601316
0.01981568952162529
-0.03378549828592516
-0.001006290935288414
0.2433998497384298
-0.2599044893403328
-0.9592743718386778
0.001959606892237912
-0.1595786219888927
-0.1215386491448493
0.09467057978363351
0.7213582203818348
0.7290267070336541
-0.1447433840111458
0.6609430225014569
-0.570993757005074
-0.2118522908546288
0.3978615510895047
0.6954418651576633
0.02250742209851058
0.2416121513395137
-1.074938362712754
-0.9503167250042862
0.3017028830213864
0.759991180132772
-0.2087080589867167
0.06594777026125592
-0.7233178283679546
0.9095404774107173
-0.1862226490382485
0.416302345411986
-0.02765379257179972
0.7716053684814639
0.2806707674460426
0.3723062062134037
0.07346884240349144
-0.6586933893001393
0.6586933892789478
0.2147501228466956
0.6955269435985884
-0.05491102710621316
0.3896593112411684
0.3799552781947293
-0.01379180207900585
0.03366316263408955
0.4493944961054299
0.03138227886350688
-0.7383092450645975
0.534121361706112
0.2005985766220388
0.3057407793687945
-0.1178389070089649
-0.695441866420877
0.1798915038700852
0.7296489742926722
-0.01023427595210642
-0.813667334479255
0.8239016104173266
0.6962869071792454
-0.7920769242099724
0.09579001709221123
-0.7537090446733861
-0.1502996190091812
0.2113046430385877
-0.06100502496282387
0.0772863520736755
-0.179558828050482
-0.1127476095219163
0.292306438723616
-0.006962692889733109
-0.006613121300572846
0.7065926671682579
-0.7168269507395295
0.8847600928540058
0.07682003375101086
-0.3159780724867742
-0.5172302522502166
0.8332083245787348
0.1034078938090215
-0.1034078910322298
0.3239820333331455
0.4747273365798745
0.6158550207793566
-1.090582357294935
-0.1941303573269704
-0.585672309793887
0.7798026671393061
0.01317863801478988
0.2201290367287599
0.3771735924276929
-0.2533182267749226
1.013105438182636
-0.5383780980615882
0.6646691829628311
0.9946047397205061
-0.3787497153676355
0.229531697966229
0.8842190938497556
0.7127563602497703
0.2137018985951796
0.727723624096811
-0.7809832435840031
0.3413066237818155
-0.2761365102002792
0.2446826006657909
0.03145390810468123
0.8473414937089988
-0.01077109458013436
-0.8365703988738517
-0.7021585926573759
0.7025230390952499
0.5546220506419485
-0.7021585911656861
-0.712756360258967
0.7025230406960534
-0.0347962064458929
0.9056249147074124
-0.02086482516312528
-0.6813631436676345
0.6123608588436141
0.06900228481580056
0.538785821048254
0.5369676071186544
-1.075753428150845
0.491746886440601
0.5213585529154905
0.542759791993438
0.4595198419254945
-1.002279633861494
0.4978348619046886
0.4967698791709818
0.6123608517861516
-0.5255460052381349
-0.465106273785554
-0.5564846883074918
-0.5192541899692815
-0.1197439196025176
-0.01220616253305934
0.01220616147040955
0.5128701552473076
0.5229882493810843
-1.042242439232403
0.5752197901251644
-0.2739188599729877
-0.8855051622010015
0.3436187865390986
-0.6330348492525039
0.3905792153261816
0.002440212233127416
-0.8298337709066077
0.8273935586021031
0.4208499008600703
-0.01733711417701475
0.8646786075126942
-0.9473310071148718
-0.8342866791178263
0.05461087521551286
0.7796758037912284
0.5633237888953199
-0.4386424839383274
-0.1246813048938165
0.650023212293222
-0.7289085311646415
0.8855158834489077
-0.8325285408397249
-0.05298734285095287
-0.009297012778541123
-0.7881320148822335
-0.109655806710085
0.7139452293559962
-0.6042894226379838
-0.9359888930065238
0.9266918805340139
-0.7282579221612253
0.6918291809697895
0.03642874114955109
-0.8103164486618957
0.03890188986819081
0.7714145587012282
0.06168711626942835
0.04172077421116992
0.4331022138439805
0.06181511175970494
-0.8513992604350246
0.7895841487882167
-0.6427730665953095
0.5905229362590649
0.8901671568435515
0.07003624453672258
-0.9602034013388909
0.05588047482158371
-0.04744147174272775
0.3776147374764877
-0.381341701322534
0.06579289457486537
0.8423353487234814
-0.8398951337962154
-0.7334964204767552
-0.8110868174551756
0.02295480280532968
-0.1638326559077393
-0.8528727417829853
0.0203442066918289
0.6243268549239794
0.03661616629720719
0.03223340130031528
0.5310903924309281
-0.8064182059882447
0.8453200923570228
0.5658608250170434
-0.8471708815151414
-0.8659526503926499
0.03967226047033878
-0.03721943485415526
0.8380942279853227
-0.8008747931891235
-0.02547917682940115
-0.7707158569590745
0.5443517556860678
0.1519351472622748
-0.03167602069462144
0.8963546288201775
0.981302754180593
0.8620700906528811
-0.8417258814785427
0.1474885979813879
-0.1474885963375814
-0.1186825732382434
-0.4825455447258494
0.04390306382559502
0.2706450013567004
0.03105788131000813
0.3864439924920979
0.8708754505102843
0.004078665945069419
-0.01104136778304973
0.6586100971049873
0.3413899028763833
0.7835487088355338
-0.5833881250183778
-0.7780728917057754
-0.8116458909693697
-0.6798405803102323
0.679840580301843
-0.1677427743907598
-0.1549855828181403
0.6017979927283711
-0.8122339955955986
0.2104360028374158
-0.4937267611158536
-0.5690139770216429
0.2782104811515644
-0.9722649086606521
-0.9019022620406287
0.8489149266682181
-0.8142932841617622
0.8372480862470881
0.6487278301816183
0.1343278844988211
-0.7830557146577047
-0.7752171486627746
-0.1459327755225262
0.7242465235846303
-0.5783137480225609
0.03102680869093535
-0.0149199913364772
0.01848236747252373
-0.003562377326039339
-0.3552925533595608
-0.1272529960827296
0.8800084714714175
0.7439222742116006
-0.24539479263475
-0.4985274810220707
0.6192409640792984
0.6852802474088672
-0.4705301230671765
-0.0006520020888541979
-0.2850970789111049
0.02563650911825864
0.7461150669165859
-0.7717515762289276
-0.3235370806418262
-0.07246477136354913
0.07567985462531306
-0.9601255978839569
0.1235551976043883
-0.6779061147770911
0.05169491612976035
0.6411222202792696
-0.6928171364141371
-0.7567010761182134
0.07879496133967953
0.5880575116377744
-0.6605222830901822
0.1567869630529422
-0.3363457896624054
-0.7706666809477367
-0.004550467663138508
0.3712270308043184
0.601460896403352
-0.02592993553392274
0.02306859473936957
-0.02306859419300722
-0.01844605877456573
-0.05052840968266973
-0.2256081064397986
0.02310791530368298
-0.01902922110627175
-0.73405051182822
0.2792997509308003
0.6802187254380876
-0.6896901107567487
0.009471385124829212
-0.5967181886595746
0.6484131096049118
0.6530314370437177
-0.06497392733906576
-0.6316066656902745
-0.125094407204249
-1.050211450921276
0.01109163788773361
0.1363969578923893
-0.7084140010683724
-0.7412624667451578
-0.7631524830297733
0.3654145715802238
-0.4127869424072418
0.4667491172976717
-0.0539621752993106
-0.6723861630264241
-0.03602783813975233
0.5015628187488924
0.7306801039723612
-0.2334034306593238
0.1118647807752052
0.9646760624839217
0.446005814204354
0.1343128540471836
-0.5803186681724027
-0.6781197143202251
0.005733549642774202
-0.04456537669410081
0.02964539537514138
0.6366977923727873
-0.7748918791831189
-0.002135133255601402
0.002135133428471466
-0.600926215979349
0.6481619525866429
-0.04723573649940643
-0.6458863096888472
-0.1131292764665214
-0.6715804909079095
0.05318452377756795
0.6048424073326434
-0.1371209790665583
-0.8175132663768706
-0.5582221115981217
0.5656396470971072
-0.007417535451035278
0.6332983020835616
-0.6238269119475125
0.3223242505028773
0.2142089525058697
-0.5365332030113974
-0.1045646759828125
-0.6021326067951943
-0.09068452794076287
-0.154920405362085
-0.5050375836621296
0.4041224195586048
-0.4987991694011416
0.1267299355719429
0.6782820964783395
-0.8050120321112649
0.5992183842681943
-0.3693380847752128
-0.04344885354574934
0.07884865409208336
-0.5838862343996544
0.5518494630552815
-0.04050198458980077
-0.5113474783126654
-0.3123453081317126
0.3048785258191973
0.007466781347417974
0.4541806633771839
0.1210391268085032
0.05089882989666324
-0.3158862141971008
0.1567853868696759
0.1591008271329885
0.2332405329895907
-0.01135361785651863
-0.2948302303346015
-0.3120891812988195
0.362710091165528
-0.0506209119776109
0.7882243820301188
-0.6272105009199083
-0.01867580845040492
0.4993324122103388
0.2805551865296501
-0.5259499812566437
0.5775008590310777
-0.5775008590324608
-0.2897476166205837
-0.586457782547892
-0.2955604194285871
-0.5864577823517455
-0.5947888345182775
-0.8385119781622813
0.1700372948229185
-0.5833074462347387
0.8211462901566774
-0.003483992675965012
0.1190623559160824
0.4823985391919767
0.09670228740355291
0.1854719957807804
-0.03632472190893712
-0.1491472753103815
-0.01766778869556391
0.5942013130565126
-0.9462624210342934
0.4290321725097187
-0.001743139746173693
0.002580098892056811
-0.0008369601867590774
-0.6432876746317856
-0.1317149442499256
-0.4670017790054219
0.6013146314020938
-0.5037559637654204
-0.3239143285473906
-0.2599719217950731
-0.2712415368267126
-0.1119961908922201
0.1119961905096337
0.1525220555867259
0.05878258263642885
0.1965636308227316
0.4553955069330349
-0.5732430182848429
0.1062412427920618
0.2429394581295178
0.4662425563006806
0.5337574429140197
0.6414217721345761
0.08520506681612715
-0.003963604540450733
-0.08124146520413764
-0.2768582780533895
-0.540654988239945
-0.5502960378274924
0.1141478063626492
-0.1261137102560656
0.01196590340019032
-0.1058293602054765
-0.3860132249697573
-0.04470358739035037
0.6495459757251038
-0.4986624187454041
-0.1446252559350185
-0.3390148583024117
0.2919489790971635
0.123399960761273
-0.6070215957887023
-0.2040674879770236
-0.2617821375522966
0.001877630648755461
-0.4221755181112916
0.3226826873226567
0.09949283037284291
-0.09322608399964226
0.29162334580331
-0.8959286846079634
-0.4580182940321415
0.6318781890246606
-0.7729526726143369
0.6683879965864828
0.3422178396106397
-0.1255490816860738
0.2253640823320357
-0.09981499975992772
0.02458620116651562
-0.5862748189669686
0.02928496290488936
0.5569898563559851
-0.9007173925112055
0.546948196798308
-0.6656307701045238
-0.09734749045762321
0.1093902214410873
-0.1093902183432492
-0.3165382146866146
0.3637125771168135
0.01390216587970683
0.02959833297658708
0.05560674405441383
0.5052335652826401
0.6615501784675727
-0.7399005981936405
0.03074993390334635
0.02364761586530335
-0.0005790133764906177
-0.007056099082528557
0.007056098401378173
-0.4166809626690454
0.5377200908507934
0.01525375740241592
-0.0152537575444089
-0.7922292298293555
-0.06062227498428068
0.1223093980929972
-0.4554266126411109
0.5616678570613706
0.4510843527095123
-0.4983200929505038
0.1498551550006213
-0.1498551538465223
0.03528238384379862
-0.001619223903638633
-0.04165311047484008
-0.9767696782031101
0.5406796208918815
-0.470643130445992
0.04172077725323089
0.5144658240072396
0.03107099274797815
-0.5455368165081116
-0.6159617340166875
0.1172993146104741
-0.3296624319573983
0.0134322696332798
0.316230163106686
-0.1543996887275597
-0.07900373145723934
-0.5407904886604572
-0.04548433629087306
0.1363969563107222
-0.04069796783663283
0.03856284074429989
0.08128372198477708
-0.08128372575767863
-0.5376889740537555
0.4870680731603924
-0.4144328203351674
0.1613391777784566
0.622209531003754
-0.0979201287669059
-0.004586231907419608
0.004586231970254968
0.5329582379425402
-0.07593120549589281
0.005982329812792174
0.02700673463044636
0.03466466744946686
0.6854540075784734
-0.7613852129163031
-0.6564643893110891
0.6377885778142166
-0.1069305799826561
0.312894647760263
0.7461750853251247
-0.01844606073087597
-0.2672175934165701
0.1493786793773025
-0.7446650627612006
0.4843640428835637
-0.4238045661296862
-0.1014959181633115
0.003561264100434411
-0.01440937894433929
0.01914429323299944
0.4113375543033021
-0.1216417838983092
-0.3897056931546279
0.6288503676891142
0.0192622814275932
0.01071564194440832
-0.01071564187613723
-0.3554359330542431
-0.08229347198622884
-0.5605886923094993
0.5571046998488802
-0.2382966953830631
0.4647986826462385
-0.1510999333340429
0.7287829412400904
0.6729962779833542
-0.04069796702726414
-0.61565366178987
0.5621814711097164
0.2891953591772585
-0.2868925053214572
-0.002302855072225121
0.5445624904115181
0.09338279984765527
-0.03896331308003911
0.1968254230626449
-0.1578621105887227
0.120247031311813
-0.1202470343726464
-0.8587615950277729
0.002366561551281345
-0.1132157852807699
0.1402225213030801
-0.1319802929827782
0.1319802923379707
0.02364760995428522
-0.02303228413508155
0.6707024750672853
0.05894649864248661
-0.323101294267169
-0.06291193126020185
-0.471226264604919
-0.04981949876211374
-0.1516968996675672
0.1516968985537898
-0.04595908821950292
0.1432589036571833
-0.1432589028097149
0.1366493640568284
-0.1366493661448125
-0.3156442989663348
-0.1146288734837955
0.2265734557718912
0.1030030398659184
0.03485999122942639
-0.8211064247932717
-0.1977432487032924
0.170311091110522
0.02076175303258227
-0.2653885683249035
0.1257649373878748
-0.1257649366493528
-0.4140611526893409
-0.08473801884883263
0.2365085532439783
0.002229304254832735
0.04058575337113279
-0.5432229736998313
0.5780191801473558
-0.02679946980628417
-0.01915962055180043
-0.02863431998164466
0.02701510247274285
0.006596264836346824
-0.1842909290440551
0.1776946641100579
-0.1082456380421011
-0.2281001527038476
-0.1448053516858218
0.1448053507820855
0.07294618660064284
-0.07294618696844088
-0.01943799819390852
-0.1086719466212033
0.1281099454915305
0.2420579737122989
-0.1828057593301519
-0.02718755783769282
0.02660855390750767
-0.1387124026782733
0.6257804772025333
-0.03904999218137345
0.4229554472389767
-0.04260908822137561
0.06242478614769643
-0.1534531392013697
0.1534531376771886
-0.6363458161492003
0.3088975062337679
-0.07936580802205589
-0.2346722248407682
0.003565172186869898
-0.1218445629686037
0.1624303152054772
0.1950975587451155
0.09720888401155778
0.09596904537818834
-0.06130437764539306
0.07258163309297117
0.04156617435134678
0.06386844622683643
0.106442640395157
-0.09579665192866302
0.2076614160221389
0.01285077038897191
-0.1148258841488524
-0.1011781666155653
0.09775471150560161
0.003423456215623592
0.01293197365813393
-0.02334679956870319
0.0378464631502625
-0.03784646319550739
0.0749808598584822
-0.0547950912731678
0.05479509096541886
-0.2245563149142963
-0.05240109895763489
0.01145302832582492
-0.1030889755931216
0.01640233211654925
0.1083271770063652
-0.1083271765033947
0.2945903880241381
-0.271561472077537
0.1633158378762137
-0.05078562499410785
-0.2207758469565081
-0.01754021988452337
0.01754022017295961
0.3673508397808737
0.2852627269431989
-0.5274965884856748
-0.09399680384707219
-0.03211690604265694
0.528690023751871
0.2134236703951104
-0.1700087094503313
-0.3808494303991954
0.07648122739287512
-0.1478023608909539
0.1873474888537751
-0.03954512819632486
-0.06676099758289761
0.06676099787360781
0.8226563127139199
-0.5606659608138577
-0.00457930329929415
0.01751127564968538
-0.01998411019028937
-0.2867005251956594
-0.01749396778103162
-0.01282505094085245
-0.1317954785337022
-0.5720260416103283
0.5559642811347063
-0.5693532257005658
-0.006891552150093363
0.1029945357148169
-0.001756233401472931
0.01680377136581123
-0.1677864712403607
-0.3365894566829433
0.2335004811768216
-0.05453772143871954
0.03509972478593115
0.131724982109172
0.1731535436949835
0.3366244933845159
0.2766915529458924
-0.2784477858676149
-0.06261532095239619
-0.1549755458890809
-0.2212399500132139
0.0748439652020312
-0.01097551994138437
0.2141295307467443
-0.1973257588826346
-0.08628476144549244
0.1588663936650896
-0.3551442742760096
0.2086477333601794
-0.1922454010947963
0.08960082031716582
-0.4793065172286129
0.1745224404823687
0.1699023454787474
-0.256187102694327
0.07262224987736456
-0.1943181194121847
0.1768241511626098
0.01743775812537025
0.1414286363803372
-0.03954134716195513
0.06616806158013491
0.4667901758288556
0.02030624388852131
-0.07732784332297651
0.05535537781318562
0.1258131472172465
-0.2607850756559578
-0.2308791253782474
0.5597186276462915
0.1577820396707234
0.0787265131539476
0.07557656661308597
-0.03091394540735648
-0.01043557043598041
0.008132709528342009
-0.0327939774232219
0.1711960746806934
-0.1780876263583814
-0.05818354733836293
0.02202924398825006
-0.1467807140601783
-0.05288948060662927
0.1494778795717
0.2770834318302803
-0.03863159061115928
0.0165795334155086
-0.2557539348874324
-0.1314048309894943
0.2356952406730153
0.179053628050763
0.1298438781780938
0.02188413384750943
0.08905995723295915
0.05216916131004108
0.4530644039294877
0.01627422063887134
0.09708627646056243
0.04376949811923483
0.07165825506924872
-0.1154277543774058
-0.2422338634407478
-0.2009377561527553
-0.01983808834655998
-0.2022230882732462
0.2755920277092688
)
;

boundaryField
{
    FrontBack
    {
        type            empty;
    }
    Top
    {
        type            calculated;
        value           uniform 0;
    }
    In
    {
        type            calculated;
        value           uniform -1;
    }
    Bottom
    {
        type            calculated;
        value           uniform 0;
    }
    Out
    {
        type            calculated;
        value           nonuniform List<scalar> 10(1.034506678174013 1.064331826681918 1.021590962097089 1.019193413786632 0.9964874502066069 1.016024069022545 1.035858404246971 1.062740738132095 0.867248471353682 0.8820182019662833);
    }
    circle
    {
        type            calculated;
        value           uniform 0;
    }
}


// ************************************************************************* //
