/*--------------------------------*- C++ -*----------------------------------*\
| =========                 |                                                 |
| \\      /  F ield         | OpenFOAM: The Open Source CFD Toolbox           |
|  \\    /   O peration     | Version:  2412                                  |
|   \\  /    A nd           | Website:  www.openfoam.com                      |
|    \\/     M anipulation  |                                                 |
\*---------------------------------------------------------------------------*/
FoamFile
{
    version     2.0;
    format      ascii;
    arch        "LSB;label=32;scalar=64";
    class       volScalarField;
    location    "779";
    object      yPlus;
}
// * * * * * * * * * * * * * * * * * * * * * * * * * * * * * * * * * * * * * //

dimensions      [0 0 0 0 0 0 0];

internalField   uniform 0;

boundaryField
{
    FrontBack
    {
        type            empty;
    }
    Top
    {
        type            calculated;
        value           nonuniform List<scalar> 
15
(
142.2726353976983
133.5516883945941
138.063280416541
144.3847227174472
159.7608604068393
131.3668536173589
140.1086046852135
135.3412547263699
153.4355585722361
135.7377807058776
136.0807869278017
136.7796592372275
125.238072569852
132.9011281105935
123.9505224077118
)
;
    }
    In
    {
        type            calculated;
        value           uniform 0;
    }
    Bottom
    {
        type            calculated;
        value           nonuniform List<scalar> 
15
(
155.5669484183283
158.1116699630823
141.1066961671871
142.081358373053
141.1898782163513
148.4595881645781
142.716204062216
143.1696334567543
143.4228125300482
134.0654684100537
125.7393672131859
141.5610431224748
122.4128598324406
123.4902955024483
124.1461448445662
)
;
    }
    Out
    {
        type            calculated;
        value           uniform 0;
    }
    circle
    {
        type            calculated;
        value           nonuniform List<scalar> 
32
(
56.19876394438484
21.73144517860803
65.23280052470713
25.61446116184138
19.93144188748058
56.28221077857293
56.69648424588876
24.07680742300125
22.11004020191927
65.455594764049
40.02341537235093
62.95198554818383
50.50145002643732
15.78505526800796
22.90818049205221
19.47583214984029
39.11461886147978
59.74607344794083
61.101005617594
26.53520067640241
65.80810946501545
63.73481343791769
63.06754666474409
59.82976725594433
64.18601925455148
46.0863722783378
66.45844288099772
32.24876601503178
37.84891272164236
55.64448693370817
21.42876997396683
43.03822051036253
)
;
    }
}


// ************************************************************************* //
