/*--------------------------------*- C++ -*----------------------------------*\
| =========                 |                                                 |
| \\      /  F ield         | OpenFOAM: The Open Source CFD Toolbox           |
|  \\    /   O peration     | Version:  2412                                  |
|   \\  /    A nd           | Website:  www.openfoam.com                      |
|    \\/     M anipulation  |                                                 |
\*---------------------------------------------------------------------------*/
FoamFile
{
    version     2.0;
    format      ascii;
    arch        "LSB;label=32;scalar=64";
    class       volVectorField;
    location    "1664";
    object      U;
}
// * * * * * * * * * * * * * * * * * * * * * * * * * * * * * * * * * * * * * //

dimensions      [0 1 -1 0 0 0 0];

internalField   nonuniform List<vector> 
808
(
(0.7562731563366576 -0.01751602649198543 0)
(1.031543032725805 -0.01259487053688673 0)
(1.111460847852083 -0.004284682669331367 -1.717207370341506e-20)
(1.085126616827498 0.01258197872401833 0)
(1.362068299376085 0.01276137887354205 -3.814499241799986e-19)
(1.038745120518745 -0.009429215083104663 -7.326413770117648e-20)
(1.014541136225093 -0.02087086220816564 -2.439613626659467e-20)
(1.079236024779841 -0.005167472980290129 9.048104012010604e-21)
(1.253632620736165 -0.02175239114525529 6.255601875466153e-20)
(1.085320544292472 0.009373866224738008 0)
(1.007535179957537 -0.01006979054061595 0)
(1.304767412663963 -0.05464119443962188 -3.45951209535179e-19)
(1.086420454517333 -0.00195547576139735 2.044595072412042e-20)
(0.675202640087081 0.006356817044123461 0)
(1.275078655146405 -0.1195666810674577 0)
(1.081793162476557 -0.0004502993019196587 -3.871178326467336e-20)
(1.223989026716445 -0.1475085568830102 -9.525944069992244e-20)
(1.074220393732175 -0.0003655392605491317 3.209719734364647e-20)
(0.9888318911856938 0.004100187253491558 0)
(1.026706322472169 0.009620298433836797 0)
(1.032874973623481 -0.0139442150361852 0)
(0.9875890264195809 0.04524792956345831 0)
(1.051067514466626 -0.006066546293436512 5.811280179789249e-20)
(1.053827084518788 0.008755549867215308 0)
(0.9334914807058758 0.1988796976364389 4.566858439430194e-19)
(1.1613724438694 -0.08723393192607617 0)
(1.185332814723869 -0.01993899896950704 1.539119068481512e-19)
(1.077234438132381 0.00967487560130033 5.23607282736254e-20)
(1.083678570002274 0.002064196069528546 5.125679582667246e-21)
(1.071762775524931 0.03092100212577571 0)
(1.075256700515969 0.002761971908639561 -1.183844217673336e-20)
(1.033322087822753 0.006670308621376834 -1.873877366615139e-19)
(1.060075652748525 0.014509524150958 -2.350740933697705e-20)
(1.088748072111628 0.005632126574710359 -2.93888768991496e-20)
(1.121712704354173 0.03756652166025354 0)
(0.7548829905066654 -0.1214932057812491 -4.550052449040099e-19)
(0.9547603787447254 -0.0058022479435749 0)
(1.068764962928396 0.02223278940633787 0)
(1.068800972380607 0.007219002171701016 0)
(1.07379534503522 0.008697328910335155 -2.818106955825316e-20)
(1.093294332036401 0.02361882575098495 1.078419062310554e-19)
(1.15071083822817 0.002280495459601342 2.114137755986031e-19)
(1.095797129416605 -0.002278738219172712 0)
(1.015163656400662 -0.009354446652944666 0)
(1.129199898835513 -0.09311231676536429 -1.630847132936436e-19)
(1.044069419115052 -0.01170665274675865 -8.380447710618354e-20)
(1.058155646444799 0.02665518309593159 -2.675732600066831e-20)
(1.230112724072162 -0.1126636088702246 -5.558821602727597e-20)
(1.067485182054169 0.01202586482176062 -4.069205741752399e-20)
(1.257470660421221 0.0150090310777787 0)
(0.9970928714558532 -0.01916402019214749 2.2142604844886e-21)
(1.044749809202087 -0.002272262148379126 0)
(1.087434949221781 -0.002145132222520094 0)
(0.9988459855309898 0.007862420431604804 -1.887816153100846e-20)
(1.251541836690274 0.03273167712170962 -2.391899904678684e-19)
(1.063428928737428 0.01811603620643378 5.870149063961037e-20)
(0.9903892234346363 0.01148770501159362 0)
(1.015348352599514 -0.006788353402555828 2.533236132093469e-20)
(1.107509801872536 -0.001319608083858285 -1.154678052788382e-19)
(1.061220452889334 0.03124910875635547 0)
(-0.08587946934714824 -0.009331735809707123 7.712333799493202e-20)
(1.154289530377276 -0.05243379037670387 -1.846266591789529e-19)
(1.004394459108818 -0.005717896118747146 -2.782226684838109e-20)
(1.188202658184595 0.0663356782510396 -1.20439339002715e-19)
(0.9970762477179361 -0.009859102719317862 3.104081340533678e-20)
(1.084158704464141 -0.005455785430790746 0)
(1.248864748666384 0.09250934745438776 0)
(0.6960798866902106 0.003161855767579524 -7.423180752494259e-20)
(0.9882883440942341 -0.01494348645256291 -3.233756651353088e-20)
(1.457868282071987 -0.02011208507343932 4.393554736116744e-19)
(1.060552491028207 0.007604640807649556 -6.526968408059897e-20)
(1.366237125429978 0.09286232858983975 2.836906353387295e-19)
(1.054871802445201 0.006796019292897734 -1.953248527787257e-22)
(1.080939871427636 -0.01399771810819696 -2.400291502015735e-22)
(1.163527927695658 -0.2356826627778332 0)
(1.02218986174377 -0.01512115884880238 0)
(1.017340503799846 0.01809100797346771 -2.991017308168177e-20)
(1.388229009177546 0.3488459859302358 4.231342718373776e-19)
(1.097444314556534 -0.04243333763937553 9.595827762630256e-20)
(1.046466481952997 0.2105485338090619 2.409370681306179e-19)
(1.122850215859218 -0.06122355629722627 1.180255581201841e-19)
(0.9219754976690394 0.005179229390925748 0)
(0.9753473518023934 0.01853369850615715 0)
(1.003997563366034 -0.04851233968029783 3.160812847703136e-21)
(1.009983634549676 -0.01373326086298334 7.826593672781418e-21)
(1.030620609970143 0.02681834438137023 1.350980880270418e-20)
(1.526765630608426 0.03355256077036149 3.211614786628545e-19)
(1.290609866613895 0.07001309299968961 5.63815136523002e-19)
(1.072496436541667 0.003084101572174996 -8.811978348455763e-20)
(1.194199793881132 -0.09614512886010959 0)
(1.03389057764725 0.001776898453332641 1.288239426048e-19)
(1.165116022208776 0.02056146118016091 -3.124766649966824e-19)
(1.001505863972877 0.03252895684960649 0)
(0.9996278406699457 0.00199974466549733 0)
(1.044261654847857 -8.392737249462221e-05 8.013350800487775e-20)
(1.218370352398066 0.1061847020108691 4.064798751603795e-19)
(1.011147436704343 0.006966082925758547 0)
(1.089403336087486 -0.06801839225615584 -1.067213243366572e-19)
(1.151411662526023 0.0359298503830554 0)
(1.21622872319808 0.09075735120265302 -1.903945641181111e-19)
(1.10831533876334 -0.02890539597497898 -7.825033607160757e-20)
(1.027570354248974 0.011922843951167 0)
(1.085180177761744 -0.004591998781721129 0)
(1.019507755727995 0.02647018144164357 7.831541761009757e-20)
(1.073871568592368 0.05656049803901426 -9.503301371203528e-21)
(1.103712772588482 -0.004223961811640757 6.443014153613653e-20)
(1.106249982218295 -0.09181739668047652 1.502282342443692e-19)
(0.9635673384020983 0.001780251337506522 0)
(1.066045412309414 0.03130763002212573 3.683790411514491e-20)
(1.168065592353697 -0.07690374260864333 2.256401529157335e-19)
(1.052530220025175 0.04727718381037305 -2.847075583192875e-20)
(1.022978996795143 0.06800591307568433 3.643761501611932e-20)
(1.090236795291639 0.02610856255661588 0)
(1.017263767806675 0.01415069276762944 0)
(1.028981378475838 0.009362518573417787 7.839120079648347e-20)
(0.9485358994464262 -0.03238706161353187 0)
(1.052932298714586 -0.005434298297039509 -7.394133612537994e-21)
(1.340677419250437 0.05564709479055557 -1.540329953017201e-19)
(1.079670553350803 -0.01317361837599596 2.666467229154808e-20)
(0.7440662077104194 -0.00173628303261937 0)
(0.5862697906013472 0.1882181089305639 -1.132104129916531e-19)
(0.7060833243676691 -0.002479955987917171 0)
(0.6988354172909906 0.01463940283478348 0)
(1.077744727287162 0.003600984629762979 -6.451085002788113e-22)
(0.9906523811496335 0.01446710709237119 0)
(1.28006995364524 0.1219758724574628 2.5528756177997e-19)
(1.012232210758537 -0.0279004736883467 -7.379636136819762e-21)
(1.043652257497983 0.01645036677094017 1.439619161735559e-21)
(1.058597789247664 -0.0121752346357909 0)
(1.126516341330781 -0.009156940131230799 -5.135548427962072e-20)
(1.2709328829373 0.1267857390357353 -2.245060647319583e-19)
(1.089080717727952 -0.01089418891279476 -8.618710238136108e-20)
(1.071001380902244 0.02616778340815486 -1.068952642338396e-19)
(1.041037050560585 0.04679779956855158 7.436520531815978e-20)
(1.022563985717712 -0.003639045063259795 -3.478864483510062e-20)
(1.060987360682942 0.02368496552440776 5.695261124481266e-21)
(1.138655206882268 0.00421440636456631 1.034973224756746e-20)
(1.039384548621528 -0.01387395764492122 -4.762756965057927e-22)
(1.087408137939714 0.03473864659025261 0)
(1.028383062618923 0.01369793554937991 0)
(0.7825914410235009 -0.07987007468442395 -1.820357441181283e-19)
(1.030298352720289 -0.001865732563771105 -6.534234669933404e-20)
(1.132549511756697 -0.0004621173929845343 -1.248535546182934e-20)
(0.7034647312605599 0.006554496534221121 7.117707647008115e-20)
(1.175373264802242 0.01895413854587367 -1.973452407982685e-19)
(1.136506914270484 0.003617898644777313 5.23259135517063e-21)
(1.129020667908873 -0.01005988524379327 3.364020343551035e-20)
(1.000933316639113 -0.002968260729937965 -6.704367236705242e-20)
(1.101048152451937 -0.05741527583887686 0)
(0.9898781107015689 0.004672772068848161 0)
(1.057838759979583 0.007021198290834443 0)
(1.006007547759366 0.1891929854503455 -2.363040045205342e-19)
(0.7792768174783871 0.01243791498194158 0)
(0.8570437193804561 0.1025772100450749 -8.207535027137823e-20)
(0.09564283387560323 0.0320415191886196 -2.973463903544521e-19)
(1.171858069251117 -0.03184563114677444 -2.29378786218188e-20)
(0.6712564456264311 -0.007342474083575295 2.454069420745599e-20)
(1.163755746695639 -0.1014918117667356 6.939843277400147e-20)
(1.126793757799863 0.0006463044004613944 -5.848599360255698e-21)
(1.153592776387427 -0.04984909874492089 2.2289847852902e-20)
(0.07943440119229149 -0.2034671268981703 0)
(0.2418487519580081 0.0631003337773358 0)
(1.261236621489572 0.1044972203172535 1.852863521498177e-19)
(1.021189399383936 0.01984079863196208 0)
(0.737698962340972 -0.006256302594929803 0)
(1.0749565474844 -0.01142733442446278 2.74170461562625e-20)
(0.9748954452820504 0.00288260234817396 0)
(1.296389459462988 0.118866325270888 -1.473011984122378e-19)
(1.057353222793109 0.01095445684208631 0)
(0.9928390953388376 -0.0072016421625432 0)
(1.06518919266405 0.008255230842428678 0)
(1.006246236628607 0.02091013912687519 2.197507557887478e-20)
(0.9335970698384641 0.009331537904141329 1.285195473448927e-20)
(1.175894830914608 -0.199520766068804 0)
(1.005064812720113 -0.005199257972981078 8.052263220626433e-20)
(1.059197062588021 0.006295351917967257 0)
(0.7745818783600713 -0.003308009319632306 0)
(1.217850000492146 0.02605705290631318 1.617782370484394e-20)
(0.705032105004548 0.001368299629625157 0)
(1.432849446358334 0.08376627212837968 -5.101082834921924e-20)
(0.9947995343558211 -0.005264308432426544 1.672884251718326e-20)
(1.274252615616541 -0.004077097149809389 -3.007857676156933e-19)
(1.059740761570806 0.009023719670532553 1.325957158294522e-19)
(1.000907371315091 -0.01353338458245944 0)
(1.209386598269085 -0.1453965996468836 2.053682498322376e-19)
(0.7331725715529659 0.01378490284576173 0)
(1.098294863167029 -0.004915610788608094 0)
(1.156473741122378 0.06663181512663947 1.885985764040044e-20)
(1.006384676618992 -0.00651116233536222 -3.047499344471073e-20)
(1.123027640663165 0.05150598904224992 -1.716584118570208e-19)
(0.1329687216470985 -0.09409938716505016 0)
(1.073572637992296 0.03882281684588857 0)
(0.661680145645744 -0.00287355088846648 -4.937880201768154e-22)
(1.012101873344701 -0.01959452240781055 9.024071579561779e-20)
(1.061489180452675 0.0008749582885215178 0)
(1.080106830365082 -0.1389366048622817 3.772700086658125e-19)
(1.002664544816619 -0.006131199963198121 -3.288744331987376e-21)
(1.003131083402039 -0.004065223924407608 1.051552162240833e-21)
(1.094006752793934 -0.009195452738750647 0)
(1.02076482974844 0.02028947760460741 -6.658487962165339e-20)
(1.106673074366 -0.001599983524191709 6.329056567134355e-22)
(1.074454595011771 -0.01076911352822144 6.648900765383294e-20)
(1.085632773276302 0.02216969827965713 0)
(1.325652564413053 0.1554581556778967 0)
(1.002081161331138 0.0005394197508145889 4.407301323908458e-20)
(1.319362452766625 -0.1333329258479213 1.605904724002732e-19)
(0.007606084547116389 -0.1559089783745469 -2.30639490997262e-19)
(1.07110315460225 -0.005358630754779737 0)
(1.111239193162892 -0.004887573810388759 1.165665189024782e-20)
(0.7267572860119061 0.01779833796350128 0)
(1.058094766212829 0.01096666947081643 0)
(0.8612631075731605 0.1612582257367129 4.590377177390794e-19)
(1.284698968050155 0.1234516033113098 1.890265664383146e-19)
(0.6542067513802589 -0.00310395370246933 -6.533677068617105e-20)
(1.039706168041181 0.005375749640526811 -3.823318154133294e-21)
(1.054824719213693 -0.0002053102661369448 6.442565276131297e-20)
(1.362150708333053 0.1165019739520019 6.552920726142662e-19)
(1.336817619807947 0.251985414727927 0)
(1.057905040872126 0.009734563292215156 0)
(0.9988349807230841 -0.004090830139580416 1.375504844724517e-20)
(0.993293121938277 -0.002050320257983321 2.556176471544889e-21)
(1.384752035497654 0.1992473311754128 4.327558279776517e-19)
(0.6818566088456079 0.0005063188115057436 9.967142145795158e-20)
(1.005706700050778 -0.002192775291301241 -6.021756920459299e-20)
(1.098153799684955 0.0131542554114755 2.561393259382935e-20)
(0.6694514589612228 0.004951438960531525 0)
(1.066084879575082 -0.0120273042455861 0)
(1.010704744987221 0.1376148482373713 -1.420910918909426e-19)
(1.08822983435147 0.002068007418421912 -2.58671423599738e-20)
(0.9819143929328213 9.041621553015779e-05 3.311347662818682e-20)
(0.9912118150618384 0.005998417296812495 0)
(0.6381229729366226 -0.001099509015852026 0)
(0.9767152105481978 -0.001262200737131128 0)
(0.6420239983754029 -0.001415751481690052 2.643931596269504e-21)
(1.087569428321894 -0.05558783247822346 1.215313002345782e-19)
(1.109666452227866 -0.005794098117796225 1.142254682618661e-21)
(0.9579895718262946 -0.0008546557687417349 3.878423571864338e-20)
(1.017217292473169 0.01039370114808794 1.738379537077058e-20)
(1.065564844447008 0.00783485578273754 -2.404399176710402e-21)
(0.6347883102772363 0.00886767448924297 -3.614086882960067e-20)
(1.005737187231656 0.01081322463865828 -6.252193957516386e-22)
(1.037854437126194 0.008240190115938885 5.326378409005031e-21)
(0.9856943507406034 -0.004618702197589386 0)
(0.6099891810610698 -0.0004412026265983799 0)
(1.069014000602188 0.02250972847327068 0)
(1.016125270668464 -0.01685895934051038 1.032588476909841e-20)
(1.022948812584114 -0.006286709324927951 0)
(0.9931880510305592 0.013659243981934 -9.812330966638112e-21)
(1.009248633023288 0.00394217046298147 0)
(1.134763460904179 0.0024845122966529 -1.219777831254523e-20)
(0.03114405259522331 -0.1410308781024182 -3.914071440242719e-20)
(1.034306168850757 -0.01790398121621705 -6.038655031948305e-22)
(1.043224143734372 0.007620527267469218 0)
(1.084627597260373 0.07042685007310509 8.426781855147531e-20)
(0.9673971566458838 -0.001269548417567595 3.109970661227134e-20)
(1.020073585835916 0.01678869314411965 -2.235617232315924e-20)
(1.005886475914659 -0.002451126119188868 2.397788183357063e-20)
(1.038944109537286 -0.007757936286549984 0)
(0.6409345730403134 -0.004087618165803514 0)
(1.025972691951324 0.02450219741597643 -7.961317993837901e-20)
(1.087188449556025 -0.0007212862397632017 5.099006765990287e-20)
(1.012410053811922 0.007539729688503119 0)
(0.9808332107603028 -0.0003915435305397692 -1.934127890157321e-21)
(0.8548151067817672 0.009406267430878551 -1.108410242537071e-20)
(1.013968999537356 0.002746857091848876 -9.510302612095639e-21)
(1.022492713591649 0.002000404399828636 1.86380645861704e-20)
(0.9822733447827477 0.000983360761940106 0)
(1.007747601264443 0.0108656795542632 3.212962155045564e-20)
(1.110668823496226 -0.001355025599351395 0)
(0.9345125790405957 0.01208470457015925 -3.194921968458977e-20)
(0.9533995774907302 -0.0002182609692753342 0)
(0.9008902899150384 0.2020042918340907 4.945434722481227e-20)
(1.011159546415074 0.06747265525251156 0)
(0.9907789443009712 0.004835117302415577 -2.285730307938638e-20)
(1.057717651766764 -0.04905166457887569 -2.787572480730494e-20)
(0.9940200004114015 4.742217223994939e-05 3.247542054615476e-20)
(1.006743057371406 0.00592160456214464 0)
(0.9803502573832059 0.0006144838917188698 -3.009154466196369e-20)
(1.178627764836053 0.1008775924349844 -3.380121323283958e-19)
(1.068361006113488 -0.2640323157806829 0)
(0.9944322921413108 0.0005271394178768946 -2.265811034905378e-20)
(0.9740492097267224 0.003510702021702833 4.755860535747557e-21)
(0.9596774275206833 -0.00179143367700146 1.023625532073269e-21)
(0.7460003640551284 -0.001064491223720445 0)
(1.119310563987375 -0.0692104255341271 0)
(1.00398481241497 -0.0003672404817457557 -2.248110207615335e-20)
(0.9082433178577394 0.007951914223112984 -1.077179761936638e-20)
(0.8405538682081657 -0.001061298947873076 3.7144733117343e-21)
(1.012175176368866 -0.006535674214487965 0)
(0.9622758511137889 0.01361150601985657 1.500098392566595e-20)
(1.005639265049288 -0.0001942407246798097 -2.240800442325002e-20)
(1.026522078131773 -0.001946357864939691 -2.479252635582544e-20)
(1.114025735996498 -0.003999292378327583 -4.907139860104256e-21)
(1.116194316705186 -0.00492332473137528 0)
(1.009712305463679 0.001069475541669419 0)
(1.023017014793804 -0.003006422539588156 0)
(0.9452624761394171 0.006861121014471966 -1.986509601226115e-20)
(1.017865282334526 0.01334804005250996 5.63070254614885e-20)
(1.088042917003937 -0.003348139384960736 -2.361651916403312e-20)
(1.038538107312377 -0.002861787849834831 0)
(1.109064442794214 -0.00254285584630818 1.833099385196122e-21)
(0.9943369820720843 0.00103757672570607 -2.245160402253769e-20)
(0.9799890730643842 -0.0008590157443276067 0)
(1.009936360253603 0.002401301364671174 4.694390646208314e-20)
(1.363064321997127 -0.3139628155788466 -1.119574339825201e-18)
(1.120656752863373 -0.04458065311852109 -1.111443735007713e-19)
(0.9722724418346972 0.01125666604113074 4.475284962059146e-20)
(0.767587294960374 0.009462246723983466 -3.584185937522263e-20)
(1.223761115189624 0.04934726249423876 0)
(1.2157651984147 -0.1291156248727856 -1.482591821300517e-19)
(1.08564328054019 -0.004577386189168102 0)
(1.008749360257046 0.0004430603461641592 2.290441203118234e-20)
(-0.2005547040468502 -0.1065295154969686 0)
(0.993969434128274 -0.004671194466678011 0)
(1.012328525460379 -0.02303459774472756 3.894909543552737e-20)
(0.7063931023255993 -0.01942996562140817 0)
(1.096791502270964 -0.01491628470227351 2.341113809129161e-21)
(1.039007626546719 0.00334251488860576 1.518242614894504e-20)
(0.6332219178350201 0.004141942572345825 0)
(1.446152658392318 -0.1241723475449262 0)
(0.9857747508561315 0.002030878479539798 -1.066805509678581e-20)
(1.069659357830949 -0.01507794308336577 0)
(1.037829794387451 0.0005297777022704081 2.044404269209203e-20)
(1.084374406358316 -0.001527115847905284 0)
(1.012050094467939 -0.006130882044129966 -1.215059261175211e-21)
(1.006014142800001 0.003310614198755923 0)
(1.008089371372616 0.003605168562127042 -1.249611384310502e-21)
(1.004330195156443 -0.02027184042199701 0)
(1.036162123495594 -0.00782669391068364 1.802080180230277e-20)
(-0.1951827875943835 0.04191770041124712 2.815122368050424e-19)
(0.8052633831755545 0.02960741542347003 5.960897128096309e-20)
(1.005061093082759 0.002146183515519663 0)
(1.121704248632377 0.01105944079741157 -1.211075922092428e-20)
(1.109899392019808 0.003936939782527482 9.318913496494314e-21)
(1.054205661834744 -0.01276052504975515 -1.329063006214741e-19)
(0.9987718882474559 0.01040244976079994 -3.398177252441383e-22)
(1.084072449757003 -0.005977890753642643 0)
(1.188909256257088 0.05043558534646846 0)
(0.8350584831185793 -0.07460877292889498 4.607647694338886e-19)
(1.089577311804763 -0.004510118059008282 0)
(1.033810619786926 0.007879562278553156 -7.714038091763095e-21)
(1.042562630753664 0.005367863727597387 5.63841377497516e-21)
(1.053218930143565 -0.05833072175615277 -7.596564758832125e-21)
(1.139414031387263 -0.002125307736495239 1.723860293528838e-19)
(1.08102972698828 0.002570652173600554 0)
(0.9943338741608415 0.001960407128183973 0)
(0.9981267026498311 -0.02628091929481186 -2.435393352414535e-21)
(0.9906889148621888 0.003606271357618618 0)
(1.030512076734771 -0.03654870712910151 6.520774728057683e-20)
(1.291497926869542 -0.09834759322434093 0)
(1.040860970094368 0.001157648251712596 -4.114591346540094e-21)
(0.986187274407052 0.01688581367249727 -9.0860830551297e-20)
(1.0337107477404 0.04318271148839744 -2.319639955591836e-21)
(-0.07637176095440126 0.1898108029233292 -1.739444255355683e-19)
(-0.06970703002922973 -0.2854844756111597 -1.297044437650066e-19)
(0.8790747506979059 0.1169385876355832 0)
(0.2766377599548314 -0.02661700474822898 -3.00031682554495e-19)
(1.008349069270192 -0.006225486319085242 -9.461684964580123e-21)
(1.06396139409355 0.002713775391719525 -2.0624428332814e-20)
(0.9922175216785482 -0.02178757345157347 3.097527625229054e-20)
(1.026945957886922 -0.03005231179607139 2.688838373933251e-21)
(1.009817757955868 -0.03048636952223905 -6.714922168610431e-20)
(0.9888232732386537 0.004888001711174032 -3.492490145946788e-20)
(0.9937116725991407 0.00498019469942108 0)
(1.024432080679771 -0.002183611677494312 -3.477615302494416e-21)
(1.931065596823153 -0.1564820805610089 1.065589190691732e-18)
(1.04776353940438 -0.01101459679320086 0)
(0.9967142611528919 0.007879567655668791 1.487159689786067e-20)
(1.003620869081741 -0.0005513532852775552 3.99202871244914e-20)
(1.170186821158274 0.1591446518863695 0)
(1.006466180536643 -0.01990096492719278 4.559745158971232e-21)
(0.9533698685500402 0.00373999307591734 0)
(1.037845398045642 0.04172305811097926 0)
(1.300137654770273 0.1493340424335378 2.211013541612312e-19)
(1.076369519429518 -0.0008388071585516217 2.334209452581108e-20)
(1.016006311755583 0.03073839282762915 4.457007105436231e-20)
(1.078584166824949 0.004180731334767221 -2.24734137988402e-20)
(1.057766946793218 -0.02349290172193085 -4.834108110023929e-21)
(-0.3897866976448938 -0.0441301128471498 0)
(0.9995249948590567 0.01250856616563783 0)
(0.1247405384680259 0.05366459040678868 -9.480528988058126e-20)
(1.005899163393003 0.0203958800106121 -3.988735722723087e-20)
(1.007126042053524 -0.02631786762117657 0)
(1.001031986390145 0.005311289522272493 -4.870043697508904e-21)
(1.082022920796214 -0.04235656918136326 0)
(0.9940795249497838 -0.01887530025210332 -8.140593292111865e-21)
(1.099899482435007 -0.05023342060881419 0)
(1.442700939138442 0.1692383451546718 0)
(1.0548176633014 -0.01190509718210624 0)
(0.9916115188600301 -0.02483297927474387 -4.163716352193473e-20)
(0.9919919736450437 -0.02352477749145132 -3.435808246817249e-21)
(1.016937742320076 -0.02183195376202548 -2.174057728080509e-20)
(0.9966452992159403 0.01697064216719898 -5.385744081208189e-20)
(0.9960948728190386 0.009518023610251275 -1.449343148117797e-20)
(0.9954579100200341 -0.02753232078944255 0)
(1.001591479973748 0.02423264249965413 1.872866379770277e-20)
(1.043167909021901 -0.02353091940082798 0)
(1.110850749671112 -0.03641643455213536 2.52269065688128e-19)
(0.9952855862820837 0.01657062634460982 4.457113818067812e-20)
(0.6150413076561331 -0.008694909905923792 0)
(1.155763938995869 0.1607701262730344 8.103830778387429e-22)
(0.8252005383060745 -0.0796684425123219 0)
(1.138678051737886 0.07255183696257207 -2.800982295688268e-19)
(1.314394301849976 -0.3885502427930313 1.276835518256113e-19)
(1.071200369158588 0.06707012666036359 -1.256223302962402e-20)
(1.011743129237579 -0.03039023231123343 0)
(0.9551911717521623 -0.21471549931442 0)
(0.5500445083759603 0.1781696920907874 0)
(1.015110369658979 0.01335554815619227 1.060680529662588e-21)
(0.7105443893355871 -0.01447235839819485 0)
(0.9987559144964748 0.01623919058749978 3.434392979535921e-20)
(1.026360014674641 -0.0007618454285854301 -2.667841904264332e-20)
(1.079028012235978 -0.00801617597657771 2.630105100103737e-21)
(1.054592274424254 -0.02522884012224778 2.530251041680994e-20)
(1.042920507330644 0.01142925326085852 0)
(1.056126129085666 0.02088388716286206 -8.809842863471268e-21)
(1.050821796576784 0.03619502198103629 -1.764189069210537e-20)
(0.9838728410920232 -0.02224109357339775 0)
(0.6248798642063297 0.005115041442745109 9.171027438864614e-20)
(0.8941621697847846 -0.005950731607195585 -8.846483628315382e-20)
(0.9093596004926067 0.005224686116106793 1.450854210152737e-20)
(0.6296495297362095 -0.006439372945710285 1.41101144027044e-20)
(0.980863799839005 -0.0001671025660008275 2.471724739082011e-20)
(1.004408191010363 -0.01755223190109263 -3.297630904051654e-20)
(0.9808170822818214 -0.02732046817385818 -2.730202372220391e-20)
(1.085641634407998 0.001569576153157885 0)
(1.019122772842867 0.005322522526649703 1.05391969825695e-20)
(1.132849208288975 0.04821754045407128 1.350719847175994e-19)
(1.031600475456811 0.0426358587118985 0)
(1.022548916825289 0.002613456327462552 0)
(1.581832405283438 -0.1681733700706214 4.356456650665975e-19)
(1.053876113259678 -0.03604928204107574 0)
(1.021360023479231 0.01054091247622326 -3.597651844712139e-20)
(1.083082892064411 0.003990528457684883 0)
(0.4931722202358015 0.003615369452055752 0)
(-0.008144516052812859 0.006717594270126894 0)
(0.9910488081669564 -0.02351928614091112 1.254457954451323e-20)
(1.300474434792717 -0.09681601401012199 3.662643950256389e-19)
(1.030858082517884 0.03692901424406209 0)
(1.02256424354409 0.003562927307968576 -2.176783188736162e-20)
(0.9301535872767157 -0.1614831887841188 -6.360426851278842e-21)
(1.256049137523643 0.07359311731330452 0)
(0.5982593734342918 0.730702036570575 0)
(1.306675230002929 0.1406524249685871 1.036887553183134e-19)
(1.674477632865282 -0.02667954539037747 0)
(1.065002168574062 0.1336286579681211 0)
(0.7276494432707403 -0.002421990822404763 4.027042024419298e-21)
(1.046417704653144 0.04741892938183193 0)
(0.7464976312254002 0.1132503474526057 1.384776247168263e-19)
(0.9968170916842964 -0.01628466127953874 3.58587896096279e-19)
(1.03868767833355 -0.03900474153049319 2.694706355383064e-20)
(-0.3733487094319589 -0.05577767959811605 0)
(1.072126985292303 -0.01617289014167309 0)
(1.085589579324004 -0.01225741993513874 0)
(0.6479519786599056 -0.5024817880648904 -2.495305225242001e-19)
(0.9904002815494766 -4.971529702425583e-05 0)
(1.092189105777206 -0.02202752870580678 6.852987961000872e-22)
(1.188476634532007 0.1207056341425763 -2.048462346253384e-19)
(1.09950791315054 -0.04308752640541352 0)
(1.005699375259363 -0.02072191651957777 0)
(0.77821497324994 -0.1919945000242922 -1.649872184624222e-19)
(0.8883452320904063 -0.1421088037391749 1.456286290651996e-19)
(1.033961751422991 0.01239054502379116 -2.048469926471191e-20)
(1.023132700617879 -0.00910402532631422 -4.273263228738828e-20)
(0.8717708837464674 0.0002095332356160802 7.935765063301904e-23)
(1.503437032893275 -0.1947938272584335 0)
(1.307299968650652 0.1096306188569687 3.001948023559012e-20)
(1.241060022433662 -0.07819446158820792 -3.257713382739737e-21)
(1.095830191716785 -0.01877354310940332 -4.016478563155322e-20)
(1.037716053064511 -0.01837919872109268 3.090111318415439e-20)
(1.092811756696773 -0.03913686416049518 9.569777065999706e-20)
(1.032398122786481 0.02048604523250233 0)
(1.051442838107636 -0.03427692120254119 0)
(1.115889266984043 -0.00900231854280051 0)
(1.100698985733883 -0.03776265139090423 0)
(0.9982634981453987 0.01078041870023274 0)
(1.154099763727001 0.079568132959041 9.38507118729582e-20)
(1.342564480727995 -0.1602772920567915 0)
(1.041051645830848 -0.0268084691124474 -2.583207375840142e-22)
(1.048706472193971 0.05467236862389514 0)
(1.010078289302643 0.01415659117490514 -3.794328252845593e-20)
(1.033554480086814 -0.007724457103603572 9.383662121215005e-21)
(1.088971806094383 0.01338272755616892 -3.164518199728337e-20)
(1.084304566468323 -0.02876234044620531 0)
(1.073030119868547 -0.000608190491898362 0)
(1.10096011866052 0.09241865144853359 -1.396762026865234e-18)
(0.9350560788439004 -0.1488035255872222 -7.108933576903971e-20)
(1.178842375892105 0.1153942615388117 1.142635381843802e-19)
(-0.4546458346873629 -0.03065650651730142 -2.919559629709531e-19)
(1.018376066571451 0.02969096340667654 -8.545673448429999e-20)
(1.00725242942742 -0.0005858199452755954 0)
(-0.2424809458792267 -0.002454607661861779 3.579660751197264e-19)
(-0.03393140576489833 0.319343185755148 7.693709979283698e-21)
(0.9952081313908803 -0.006298714783061514 8.921322868414866e-20)
(0.1829906508565534 -0.04458663808702777 1.284212519407826e-19)
(1.088693264378104 0.0915899572172439 1.429447649635829e-20)
(0.09337471637316286 -0.1086966748813445 -5.388493417766529e-20)
(1.108297496259341 0.003107068076852993 0)
(1.093970765953005 0.248899081858231 0)
(1.021085666831495 0.02168399122161331 -1.673720390178007e-20)
(1.062449399302554 0.05765088559007607 0)
(1.024601191606224 0.02391450624219403 -8.305852461883192e-21)
(1.261327887350674 -0.5481931003465307 7.989463115428105e-19)
(-0.0979728922652459 -0.2382967683696061 2.073892083428265e-19)
(1.2995691003981 0.1106719451003274 -6.111695087880396e-19)
(1.123953295305026 0.0001003060543096348 0)
(1.12864560509297 0.1081051808495943 0)
(0.5198516882758089 0.07588288694364898 2.400478239940983e-19)
(1.023183488196498 -0.02044368689594831 9.608841391382533e-20)
(1.005915404780313 -0.0231345058967028 0)
(1.212374281729907 0.2709199143463293 -9.811141666483287e-20)
(1.254420692357406 0.1253984472644631 -1.490895798952743e-19)
(1.026491286817689 0.002985655230882328 1.594834834525534e-20)
(1.296211870983059 -0.08516782108639182 -4.946631488328868e-19)
(0.309871579412315 -0.0241710886256708 2.920720989811033e-19)
(0.8350042473296658 -0.1506336893513552 6.936573883259767e-19)
(1.046433590532477 0.06395185207031148 1.101794304594758e-19)
(1.038906953275111 0.001280921596924266 1.401234850332656e-21)
(1.000711239093057 0.01935062126594393 2.837786614795989e-20)