/*--------------------------------*- C++ -*----------------------------------*\
| =========                 |                                                 |
| \\      /  F ield         | OpenFOAM: The Open Source CFD Toolbox           |
|  \\    /   O peration     | Version:  2412                                  |
|   \\  /    A nd           | Website:  www.openfoam.com                      |
|    \\/     M anipulation  |                                                 |
\*---------------------------------------------------------------------------*/
FoamFile
{
    version     2.0;
    format      ascii;
    arch        "LSB;label=32;scalar=64";
    class       volScalarField;
    location    "1990.5";
    object      yPlus;
}
// * * * * * * * * * * * * * * * * * * * * * * * * * * * * * * * * * * * * * //

dimensions      [0 0 0 0 0 0 0];

internalField   uniform 0;

boundaryField
{
    FrontBack
    {
        type            empty;
    }
    Top
    {
        type            calculated;
        value           nonuniform List<scalar> 
15
(
142.2881519596587
133.5885933014727
138.068203096361
144.4107888460221
159.7705230664421
131.3682332800701
140.1382351507182
135.3610288958575
153.4521240427348
135.7320279378257
136.0953472687291
136.7694104239735
125.2660003114705
132.9127201633242
123.9532500533997
)
;
    }
    In
    {
        type            calculated;
        value           uniform 0;
    }
    Bottom
    {
        type            calculated;
        value           nonuniform List<scalar> 
15
(
155.5665245565627
158.1186468797696
141.0830378453543
142.0423300052459
141.1766764760155
148.4243081066908
142.6982607074836
143.1483459365839
143.4221285962314
134.0565541056932
125.7251708234973
141.5536505864294
122.4053099933785
123.4871309510095
124.1295988120695
)
;
    }
    Out
    {
        type            calculated;
        value           uniform 0;
    }
    circle
    {
        type            calculated;
        value           nonuniform List<scalar> 
32
(
56.16729491019252
22.20258271874959
65.2974231638057
24.11817495079959
19.5223157408755
56.15276003768061
56.71048503137021
23.86439591594931
22.35419768099324
65.53422114237183
39.95000940366675
62.99737929368101
50.46728182996267
15.67502078196926
23.39183785862638
17.97117802138944
39.12680682337751
59.68758641770917
60.99476751381494
24.2886937105865
65.72476072734678
63.82589862477452
62.99988085613913
59.93557707859025
64.09401654894189
45.92075883655888
66.38112693394098
32.01719538644438
38.03647451637202
55.77111714913037
20.96180431065043
43.17742481731617
)
;
    }
}


// ************************************************************************* //
