/*--------------------------------*- C++ -*----------------------------------*\
| =========                 |                                                 |
| \\      /  F ield         | OpenFOAM: The Open Source CFD Toolbox           |
|  \\    /   O peration     | Version:  2412                                  |
|   \\  /    A nd           | Website:  www.openfoam.com                      |
|    \\/     M anipulation  |                                                 |
\*---------------------------------------------------------------------------*/
FoamFile
{
    version     2.0;
    format      ascii;
    arch        "LSB;label=32;scalar=64";
    class       volScalarField;
    location    "471.5";
    object      yPlus;
}
// * * * * * * * * * * * * * * * * * * * * * * * * * * * * * * * * * * * * * //

dimensions      [0 0 0 0 0 0 0];

internalField   uniform 0;

boundaryField
{
    FrontBack
    {
        type            empty;
    }
    Top
    {
        type            calculated;
        value           nonuniform List<scalar> 
15
(
142.2816092829169
133.5839665824206
138.0703138219441
144.41139580373
159.7730303505026
131.3688223742201
140.1349890830839
135.3631310264281
153.4434519527546
135.7397968047379
136.097644718462
136.7689134425017
125.2578052968437
132.908463541825
123.9493759111637
)
;
    }
    In
    {
        type            calculated;
        value           uniform 0;
    }
    Bottom
    {
        type            calculated;
        value           nonuniform List<scalar> 
15
(
155.5654266177659
158.1164689101692
141.08275496015
142.0508499974405
141.178154760187
148.4288816826212
142.6987009145035
143.1555460827609
143.4233485477444
134.0544242207345
125.7274014978225
141.5513644719829
122.4082486082926
123.4897488910625
124.1331439648493
)
;
    }
    Out
    {
        type            calculated;
        value           uniform 0;
    }
    circle
    {
        type            calculated;
        value           nonuniform List<scalar> 
32
(
56.30870696266005
22.26206401436377
65.33218599114724
23.46947539417612
19.13851503911998
56.13903079853102
56.79234987636028
24.03151305582386
22.40269027894628
65.5592435686617
40.11194673458074
63.04998414098005
50.339915051212
14.09089226402992
23.7372835405243
18.34033051748822
38.9498447223569
59.60305381614231
60.97894809712657
24.32729048950789
65.69972602624591
63.84570092903881
62.94696296565557
59.95260525181531
64.0745588288659
45.90937665786857
66.34625194775492
32.00824571773762
38.0594176630875
55.78819020332272
20.94767394124874
43.19355096771642
)
;
    }
}


// ************************************************************************* //
