/*--------------------------------*- C++ -*----------------------------------*\
| =========                 |                                                 |
| \\      /  F ield         | OpenFOAM: The Open Source CFD Toolbox           |
|  \\    /   O peration     | Version:  2412                                  |
|   \\  /    A nd           | Website:  www.openfoam.com                      |
|    \\/     M anipulation  |                                                 |
\*---------------------------------------------------------------------------*/
FoamFile
{
    version     2.0;
    format      ascii;
    arch        "LSB;label=32;scalar=64";
    class       volVectorField;
    location    "1595.5";
    object      U;
}
// * * * * * * * * * * * * * * * * * * * * * * * * * * * * * * * * * * * * * //

dimensions      [0 1 -1 0 0 0 0];

internalField   nonuniform List<vector> 
808
(
(0.7562685341429052 -0.01751032887283527 0)
(1.031566591052757 -0.01261587744057267 0)
(1.111067398558425 -0.005506877920623391 -1.717998781513941e-20)
(1.085123833084492 0.01259028013813446 0)
(1.363006988284184 0.0132053046241001 -3.828522208426049e-19)
(1.038754270931065 -0.009411813774712547 -7.315142112208622e-20)
(1.014428662900412 -0.02101653326330391 -2.430760919807571e-20)
(1.079245836476291 -0.005299238282536888 9.058807804193305e-21)
(1.254195264517121 -0.02133218579223221 6.271754988524484e-20)
(1.085301259487065 0.00973151612351021 0)
(1.007997779122073 -0.009048983076795258 0)
(1.30549367715352 -0.0543370680072105 -3.475119981024856e-19)
(1.086386719775561 -0.002009200605002064 2.045094910403758e-20)
(0.6752128684918043 0.006355632181708637 0)
(1.275763004044349 -0.1175185436504804 0)
(1.081682757612968 -0.000432924779735389 -3.872029586727663e-20)
(1.224087594353201 -0.1454970513851624 -9.478238564079392e-20)
(1.074114401717222 -0.0003001616304281863 3.211233954351937e-20)
(0.989344013290662 0.003668229110712067 0)
(1.026558270193365 0.009689281736072109 0)
(1.03253779844731 -0.01264636956291213 0)
(0.9875686007921718 0.04503969159620601 0)
(1.051089334713496 -0.00600389127004862 5.770849117593332e-20)
(1.053772062785191 0.008981050620225632 0)
(0.9332150430577579 0.1982315261118773 4.575015113656981e-19)
(1.162382221986707 -0.08592546488027808 0)
(1.18571868333138 -0.01958706708994296 1.547080383805852e-19)
(1.077290624881545 0.009643635542739887 5.229570383155217e-20)
(1.083628741304859 0.002172322431151816 5.118901188117673e-21)
(1.071742299144442 0.03090111615235387 0)
(1.075250059789188 0.002804885158344569 -1.182407203505808e-20)
(1.033220038454049 0.006780108030594121 -1.88765637000567e-19)
(1.060061116065167 0.01454932219753687 -2.351025150263767e-20)
(1.088814743863968 0.005657802348882707 -2.938474054967537e-20)
(1.121583054242761 0.03823259232710729 0)
(0.7549422382001776 -0.1223946765519772 -4.54730486775009e-19)
(0.9548099227081769 -0.005832476982764755 0)
(1.068757397517637 0.02221528275632404 0)
(1.068798606131047 0.007243807885538603 0)
(1.073782635429505 0.008771115058319104 -2.820453317702603e-20)
(1.093147448022652 0.02407075569905182 1.085029060001543e-19)
(1.150939815179075 0.002724933244789035 2.126833002543856e-19)
(1.095892879827875 -0.002254538658502702 0)
(1.0152136277921 -0.009267319644500373 0)
(1.130794354268674 -0.09274705652364593 -1.624172491994406e-19)
(1.044078621986961 -0.01166090715659062 -8.316721995861085e-20)
(1.058119236177808 0.02663985567730367 -2.682754235113527e-20)
(1.230702732093758 -0.112619480474548 -5.566648252585839e-20)
(1.067490173553945 0.01202018675562373 -4.091945428763863e-20)
(1.258019403041641 0.01568264468706605 0)
(0.9968703564268196 -0.019268990009022 2.211268282058424e-21)
(1.044752558383643 -0.002110782779362077 0)
(1.087508378318937 -0.002095038608722986 0)
(0.9991860552893589 0.00762911544171588 -1.870131244200309e-20)
(1.251036970474794 0.03316351340538719 -2.381156723825549e-19)
(1.06342353097758 0.01807449575091213 5.902951595030046e-20)
(0.9911869981111044 0.01123290628178816 0)
(1.016551516849989 -0.006351964813776162 2.500392008151865e-20)
(1.107605396210747 -0.0009597133801567841 -1.162337732461161e-19)
(1.061121784725752 0.03118364987109895 0)
(-0.0893141931782178 -0.000681612426643828 7.635130108181688e-20)
(1.154646651964057 -0.05227005429004225 -1.858140944011337e-19)
(1.005510823464069 -0.005618426685358354 -2.745972967802236e-20)
(1.18803332525654 0.06767060079230473 -1.211919965761244e-19)
(0.9972579139378018 -0.009586089733974649 3.099450632376639e-20)
(1.084252095682982 -0.00545653724216328 0)
(1.249370477479271 0.09419661276742552 0)
(0.6960860440259357 0.003168516831154186 -7.425127308562792e-20)
(0.9883561060265538 -0.0143721252772421 -3.22915393227591e-20)
(1.458986576428971 -0.01978307534620177 4.40955959111054e-19)
(1.060512522285472 0.007610702897480831 -6.554556781685088e-20)
(1.36729649684584 0.0936200588039878 2.847846437828142e-19)
(1.054849456573538 0.006830288551701269 -1.960911494113804e-22)
(1.080985487330923 -0.01393363272104486 -2.555721706145688e-22)
(1.164167806887084 -0.2360267540648047 0)
(1.021984021435401 -0.0150872009853189 0)
(1.017142514280937 0.01805263262294937 -3.010504530870022e-20)
(1.387171737459506 0.3485922911073677 4.216108262314712e-19)
(1.09741723302948 -0.04248395916666659 9.573457050559304e-20)
(1.046106922032924 0.2100826610235959 2.433410753747519e-19)
(1.123480199481042 -0.06061674876536868 1.175044465245025e-19)
(0.9219476699321867 0.005163277606813363 0)
(0.9753303827166603 0.01851891128998862 0)
(1.004029653471384 -0.0486239227373009 3.077351889162956e-21)
(1.009856275056497 -0.01360099480449957 7.814637769655347e-21)
(1.030301638467234 0.02687641218955146 1.358205840572211e-20)
(1.528016543969281 0.03397023615743636 3.221235194641843e-19)
(1.289893145805546 0.07033733559580031 5.614643689184533e-19)
(1.072407948239196 0.003113178545076316 -8.876950254531909e-20)
(1.194905349545621 -0.0945648460415463 0)
(1.033826315833404 0.001860116720211116 1.297697863559098e-19)
(1.165326240650761 0.0211630209773298 -3.143782920043913e-19)
(1.001485153827709 0.03248100853360437 0)
(0.9996270146247398 0.002012925192773225 0)
(1.044337010534409 -1.321419967833977e-06 7.971436282542154e-20)
(1.217700718749221 0.1085109323640652 4.098741276001049e-19)
(1.011130707897191 0.006977175458399839 0)
(1.090519631242769 -0.06785574046822099 -1.063319301517709e-19)
(1.151437623366113 0.03667140645445433 0)
(1.216387165908572 0.09256023255964284 -1.920488829555094e-19)
(1.10828849914087 -0.02889887030235625 -7.809774745193009e-20)
(1.027403496656663 0.01192224629412952 0)
(1.085089531404972 -0.00458926709486782 0)
(1.019216859084821 0.02644747407639497 7.876192992060961e-20)
(1.072980548624718 0.05661527132942796 -9.575554648208858e-21)
(1.103759089143091 -0.004174993017758673 6.411991374723686e-20)
(1.108102101068108 -0.0917970621754704 1.494678426209732e-19)
(0.9640183329050029 0.003347686171771835 0)
(1.065970436345272 0.03123530869416392 3.705888977958619e-20)
(1.168493726169398 -0.07683344861297751 2.270936525558696e-19)
(1.051918010701488 0.04725264805972602 -2.85766291346681e-20)
(1.022874196411349 0.06781157929483973 3.661871423324992e-20)
(1.090185151073993 0.0260627440260567 0)
(1.017851475676632 0.01491821697018778 0)
(1.028990297375741 0.009365978685614791 7.841175569737999e-20)
(0.9485560603374671 -0.0327314519556451 0)
(1.052817206769626 -0.005459046018857163 -7.467116369548119e-21)
(1.341625572178734 0.05628568037072346 -1.547461636109474e-19)
(1.079734796638885 -0.01313956935639206 2.665627491437271e-20)
(0.7440099574760936 -0.001727026144046874 0)
(0.5924206177845122 0.1928965650546384 -1.123375407674104e-19)
(0.706152809347444 -0.002487563878623027 0)
(0.6987813162238846 0.01463048235225423 0)
(1.077699705925048 0.003640896186317041 -6.507118167050239e-22)
(0.9906528503091433 0.01448686795981596 0)
(1.279354247183715 0.1220989823015797 2.540749787348727e-19)
(1.012259630510669 -0.02786464032352164 -7.467800934516137e-21)
(1.044985782238044 0.0171473037656172 1.519909512828146e-21)
(1.058655192953594 -0.01201488027062043 0)
(1.126578529594878 -0.009130169467206541 -5.11081935847945e-20)
(1.272194805347987 0.1305550786881633 -2.271625547570244e-19)
(1.089200607699081 -0.01095599031438041 -8.627373141847671e-20)
(1.070756236334225 0.02651046279982228 -1.07554887982225e-19)
(1.040955698859708 0.04678755251725372 7.347677082207135e-20)
(1.02260798242711 -0.003689937933254504 -3.47909263240066e-20)
(1.060895085814574 0.02364728995135123 5.751489542770586e-21)
(1.137165763323172 0.003854423909335936 1.03307488168402e-20)
(1.039115778000916 -0.01456425092978681 -4.790422781523494e-22)
(1.087367651514495 0.03472213315285284 0)
(1.028224715299901 0.01373297912083733 0)
(0.7772354108888508 -0.07699568628991299 -1.813935960743514e-19)
(1.030272001391417 -0.001755966691665527 -6.598469518825995e-20)
(1.130973949745379 -0.002358764702095009 -1.243531401634504e-20)
(0.7034399750692123 0.00656190802185017 7.147782122247529e-20)
(1.175060490916048 0.0193272965675662 -1.964274740507501e-19)
(1.137279719005369 0.005734023947049887 5.084937773160822e-21)
(1.129001547085524 -0.01003892390993998 3.382898076797232e-20)
(1.000933799132691 -0.00295582036881733 -6.859086143477257e-20)
(1.102553093469447 -0.05934245081163603 0)
(0.9896143010144192 0.005255230803349047 0)
(1.057819535421876 0.007028256111484893 0)
(1.005790619303869 0.1887404844846001 -2.383383468360409e-19)
(0.7792127135657806 0.01243412238449208 0)
(0.8570087912631013 0.1018510126091671 -8.252838456361041e-20)
(0.08957009486843903 0.03346272842638393 -2.970246943456365e-19)
(1.171758139806923 -0.03118962889767961 -2.283618550440624e-20)
(0.6712756211306199 -0.007326165139915419 2.452248289980407e-20)
(1.165387593493861 -0.1004097316241374 6.908415298446406e-20)
(1.125391404454519 -0.000616442635681669 -5.755847554795665e-21)
(1.153753937101817 -0.04912146399379427 2.21910252060281e-20)
(0.08625757548081971 -0.2104466733377736 0)
(0.2384449012491906 0.06658507917718424 0)
(1.261826628411112 0.1063445470960163 1.870465387249182e-19)
(1.021113092128393 0.0198200011834494 0)
(0.7377612763498255 -0.006248331647312265 0)
(1.075081498288555 -0.01143884376825807 2.742462273173348e-20)
(0.9748104008163387 0.002867332658894057 0)
(1.297754615049263 0.1213451293902267 -1.502555586369501e-19)
(1.057369151546593 0.0109705818350524 0)
(0.9931600690739938 -0.007015571576816754 0)
(1.06511807293685 0.008307811834708809 0)
(1.00622782739751 0.02089182364008221 2.132961820796094e-20)
(0.9363142349291258 0.01215609292299611 1.24733105025069e-20)
(1.176461603415324 -0.1997668285011158 0)
(1.005115376852863 -0.00518986349005691 8.036004175493167e-20)
(1.059173138705803 0.006351863874255366 0)
(0.7746119889535983 -0.003293284159449262 0)
(1.218215811259476 0.02678926621167483 1.627488104651975e-20)
(0.7049929734321234 0.001368419033528983 0)
(1.434038968022786 0.08441294782284776 -5.132503903876583e-20)
(0.9950830023897537 -0.005449755799132802 1.684532715023923e-20)
(1.273706044439312 -0.003403359534228731 -2.99580423206081e-19)
(1.059629195245998 0.009039729480585316 1.33573761191367e-19)
(1.000909998666798 -0.01353603944036866 0)
(1.209749468830316 -0.1428126978431733 2.052939092137787e-19)
(0.7331785304309985 0.01378493881213112 0)
(1.098406524401834 -0.004923097160935134 0)
(1.15595554146342 0.06781598016813301 1.905198189026958e-20)
(1.006533416110358 -0.006415522772347877 -3.047377522012024e-20)
(1.122619357411821 0.05227812799173465 -1.726666899405446e-19)
(0.120068689875968 -0.09354058674166736 0)
(1.073129877263087 0.03915156928207895 0)
(0.661731932843134 -0.002882246133296838 -5.131860956184574e-22)
(1.012123198929849 -0.01952014388429819 9.135281526894257e-20)
(1.061390008720904 0.0008714588682840207 0)
(1.077635436146072 -0.136129768226448 3.756574246821295e-19)
(1.002738801081043 -0.006142397008441927 -3.307073985269154e-21)
(1.003283226148535 -0.004336025876398174 9.277031435937531e-22)
(1.093982268858771 -0.009225341561099401 0)
(1.020733823469405 0.02038239908423955 -6.603035784794913e-20)
(1.106613441874482 -0.001580183248467977 6.384029139788731e-22)
(1.074575105056469 -0.01091540401787308 6.658100448331376e-20)
(1.085661828982548 0.02217645129783953 0)
(1.3272039144119 0.156441181897136 0)
(1.002063207399117 0.000461743254933096 4.408658345178791e-20)
(1.318820382056893 -0.1316881810721738 1.598022522321434e-19)
(0.01403510649861482 -0.1669956868503303 -2.333466085171321e-19)
(1.071121036984511 -0.005355120692178506 0)
(1.11157823892024 -0.005438146049257102 1.162880814115841e-20)
(0.7267363119664862 0.01779440191036386 0)
(1.05864914103626 0.0112860427810208 0)
(0.8626225300146801 0.1618353868058297 4.606294826898311e-19)
(1.283523764834947 0.1269820706198421 1.912889917830951e-19)
(0.6542585852229423 -0.003100201255159531 -6.521357711341305e-20)
(1.039607467405038 0.005445119305010252 -4.797810862497975e-21)
(1.054779153750833 -0.000212701258940409 6.459048540070189e-20)
(1.363216215030016 0.1174414889048121 6.587136906833685e-19)
(1.33591213707094 0.2518691688140885 0)
(1.058578287432492 0.008413557517279239 0)
(0.9998185938353222 -0.00433598100469368 1.397068962953154e-20)
(0.9929600857494876 -0.002623371901158292 3.406808340624179e-21)
(1.383807009911777 0.1992766530461327 4.313067814676281e-19)
(0.6818604891650308 0.0004784621844074996 9.966727338171218e-20)
(1.005682034532069 -0.002205004309466975 -6.02271685090655e-20)
(1.098199596364718 0.0131403356474472 2.561766126442689e-20)
(0.6694537955146277 0.00495252086264978 0)
(1.06608690764246 -0.01202251531958358 0)
(1.015337612038649 0.1438057732351121 -1.425177093904391e-19)
(1.090207236999017 -0.0009272941254032712 -2.576497665196884e-20)
(0.9819579322338947 9.797809808969711e-05 3.308578582092811e-20)
(0.9912117830856899 0.006007996444815718 0)
(0.6381385301615763 -0.00108365737281383 0)
(0.9767023295508477 -0.001233200887031113 0)
(0.6420642922733545 -0.00142268921877136 2.635420697432568e-21)
(1.088289590789855 -0.05528031051037408 1.210943801672926e-19)
(1.110446889451285 -0.005374633751492123 1.141826989414235e-21)
(0.9579532849029438 -0.0008548964436931241 3.878955927344046e-20)
(1.017185772673884 0.01022831783804123 1.741934984992818e-20)
(1.066247253837868 0.005830552269505389 -2.478933525199249e-21)
(0.6347612054925036 0.008873039611298265 -3.614582183885426e-20)
(1.005987249666004 0.00983922260311706 -6.675258679617451e-22)
(1.037748004311553 0.007202579068670513 5.393292317474859e-21)
(0.9856010339939046 -0.006267010124797854 0)
(0.6099659336348676 -0.0004467466500246635 0)
(1.068965120679337 0.02248851804999854 0)
(1.016406430150415 -0.01688137073882582 1.0305850276712e-20)
(1.02336634362549 -0.007984475744610873 0)
(0.9928858004214909 0.01344914548060155 -9.887121965470749e-21)
(1.009041803078289 0.002668745596627197 0)
(1.134204213473742 0.003334108187341594 -1.189260853784904e-20)
(0.03251050125174279 -0.1422646260696429 -3.828859518427434e-20)
(1.034428508187763 -0.0183586568987655 -5.828044478984145e-22)
(1.042250249499518 0.006542233087653069 0)
(1.083184746266663 0.07044705676538379 8.440310004351107e-20)
(0.9671570649489852 -0.001621778059755774 3.108324988811145e-20)
(1.020085368251525 0.01671094291678946 -2.249474995551812e-20)
(1.004781789609894 -0.002844254220058874 2.409837898872634e-20)
(1.038878961416796 -0.008061833646358079 0)
(0.6409113784637909 -0.004082951296552848 0)
(1.025926552539707 0.02451576807154362 -7.858563207867642e-20)
(1.087999495292301 -0.003130322975733988 5.074503978056916e-20)
(1.013422522417916 0.007775376886683212 0)
(0.9802359102866337 -0.0005923477042363922 -1.943291844001765e-21)
(0.855242157154244 0.008439938459031905 -1.020146186363814e-20)
(1.013988151225047 0.002654295578749346 -9.52290425826386e-21)
(1.022154556261586 0.003521180177206181 1.878119045997031e-20)
(0.9834868894559471 0.002392690758899629 0)
(1.007025695416667 0.01151902035114996 3.239592338293434e-20)
(1.111104778321618 -0.0003096016573391511 0)
(0.9330466606101874 0.01149455414413832 -3.128908687832417e-20)
(0.9536198119132727 -0.00111281961422085 0)
(0.9027618864257082 0.2027717662834067 4.963615061640582e-20)
(1.011071188875468 0.06730786226778226 0)
(0.9911558647904755 0.004976199086173747 -2.276221091466547e-20)
(1.058716538145967 -0.0497996418554062 -2.822805067734081e-20)
(0.9938670512279482 0.0004869524156299893 3.246058267108007e-20)
(1.00725891588293 0.006732980370597207 0)
(0.9798697794519097 0.0008217813939625247 -3.007083379950743e-20)
(1.177385973235925 0.1028876423959007 -3.405589812391309e-19)
(1.068876235028194 -0.2645383286978107 0)
(0.9940179294730712 0.0003653731259252303 -2.270421794458477e-20)
(0.9732859760051101 0.002029666117163569 4.793192476331455e-21)
(0.960962655547738 -0.0004293877023361907 1.008488507887897e-21)
(0.7459746066449491 -0.001054473789754776 0)
(1.12170193283821 -0.07095986013175148 0)
(1.003135726470536 0.0004817946675204504 -2.264966447683918e-20)
(0.9095804174917621 0.01079628948583074 -1.051424678972215e-20)
(0.8417973140875329 -0.001256591663755884 3.159976782431997e-21)
(1.01308199100214 -0.008324692215964597 0)
(0.9616168220329492 0.01427086921766265 1.457530584427519e-20)
(1.005590722982928 -0.0002051642303749892 -2.246483808503135e-20)
(1.025898996137282 -0.00293910113155521 -2.491340524627109e-20)
(1.11466658450393 -0.002924752847079842 -4.914498283593774e-21)
(1.117375748562299 -0.003807513277889195 0)
(1.01047352867731 -0.002317008156055847 0)
(1.021750855800127 -0.002496640016165461 0)
(0.9434736862634917 0.004405616577373462 -1.967692194019789e-20)
(1.0178579670947 0.0134516134658501 5.58981452614924e-20)
(1.088144688573365 -0.005364441264879504 -2.349352965685868e-20)
(1.039338626425416 -0.005836090489455274 0)
(1.108875885229725 -0.002319600159520742 1.841766134694094e-21)
(0.9941257921247534 0.001331060758441653 -2.2444713650977e-20)
(0.9812157792854721 -0.0003268476260308685 0)
(1.009988978886287 0.002705674792344699 4.684242381301956e-20)
(1.364216266858026 -0.314219752392295 -1.121933053929106e-18)
(1.120926521740959 -0.04397950636832597 -1.106538138808022e-19)
(0.9698808031389966 0.009509080553201227 4.420977961006757e-20)
(0.7652461967423616 0.00526673858558185 -3.490270013479788e-20)
(1.224062218755094 0.05039551772159512 0)
(1.217973184337309 -0.1272730617007472 -1.47965783327353e-19)
(1.084658180206806 -0.004745110061064806 0)
(1.008447451441939 0.0004503396151045667 2.295153927524697e-20)
(-0.1995867826020215 -0.1205132858860534 0)
(0.9939682745847016 -0.004665283139511429 0)
(1.012347958123636 -0.02304978296958029 4.005148419863322e-20)
(0.7064287408208061 -0.0194402805791233 0)
(1.096788741060716 -0.01485920231620424 2.292262029195085e-21)
(1.039702072990992 0.0006993603246680216 1.602378109525285e-20)
(0.6332316027849587 0.004129768044901443 0)
(1.447218452488962 -0.1240749546483769 0)
(0.985813634461395 0.001847906534385881 -1.066544830606614e-20)
(1.069704947464621 -0.01509338169323715 0)
(1.037789166864849 0.0004873744177485307 2.048121041194312e-20)
(1.08296822271112 0.0005926442860058228 0)
(1.012311537045371 -0.004612439567562415 -1.170321419904325e-21)
(1.00591666425165 0.003274464889930522 0)
(1.00778521623336 0.003191544450833667 -1.236945873530417e-21)
(1.004459431860419 -0.0204506526846687 0)
(1.036426272189264 -0.007590277646740348 1.764984015005505e-20)
(-0.1865866692308748 0.03678547718558264 2.78837716199558e-19)
(0.800834563969019 0.02559746213961316 5.832130458287196e-20)
(1.005154078266077 0.002021010500025538 0)
(1.123076373500656 0.009925780360004209 -1.182844528624094e-20)
(1.112168724220733 0.004326825640480465 9.087696890319839e-21)
(1.054361272622385 -0.01274678700510567 -1.32266699607807e-19)
(0.9987734386539575 0.0103944746386108 -1.084693650495213e-22)
(1.08263869542984 -0.004746526383174807 0)
(1.188983760177971 0.05144175775846821 0)
(0.8351342231919748 -0.07528169181451259 4.604332472989126e-19)
(1.089135276096487 -0.001575500893669432 0)
(1.033925367382286 0.007733849375909358 -7.671358269004436e-21)
(1.042493522375359 0.005323436669758497 5.67273376504908e-21)
(1.054359731931549 -0.05853517714197252 -7.598912355908746e-21)
(1.139285656991601 -0.001713483224574079 1.715714424202771e-19)
(1.083195857516581 0.0009236869313723362 0)
(0.994203210839564 0.001883406846854512 0)
(0.9977604880714227 -0.02666503902790048 -2.437591205394219e-21)
(0.9903812316574458 0.00361456760319086 0)
(1.03101509602074 -0.03683766525759431 6.501086654632329e-20)
(1.290912621952626 -0.0971289212382417 0)
(1.040390765365743 0.002550173781180832 -4.536293662605992e-21)
(0.9861853722448809 0.0169340249634481 -9.001729443740675e-20)
(1.033184829124674 0.04296842133615914 -2.331208966394446e-21)
(-0.07387540267015687 0.1805127223046625 -1.734109656031247e-19)
(-0.07074060753813431 -0.2902180681812199 -1.295843407476376e-19)
(0.8870915192142835 0.1229761773241707 0)
(0.2789786790199104 -0.03208252789362706 -3.087901594662793e-19)
(1.006749695132598 -0.002440738821403533 -9.979914810224966e-21)
(1.063918268073691 0.002724703152648369 -2.067298442416677e-20)
(0.9917819864390025 -0.02144704808816231 3.106409270678371e-20)
(1.026088030949234 -0.03101797131691246 2.69151051460181e-21)
(1.010093520660261 -0.03085656205744615 -6.691483266806229e-20)
(0.9888551321330316 0.004863912890592432 -3.48895332686976e-20)
(0.9935039694474297 0.005133187702669881 0)
(1.024603602999462 -0.002288069360085879 -3.467659018271171e-21)
(1.932853475219431 -0.1564832085809692 1.067861875010182e-18)
(1.045681887575657 -0.006951249848054383 0)
(0.9964974082238687 0.008173121406476132 1.495283181097733e-20)
(1.003649269112528 -0.0005260479698104756 3.992486698193767e-20)
(1.166343115002455 0.1593252384524364 0)
(1.00432883945752 -0.01609690913250045 6.548759142733453e-21)
(0.9526457352204319 0.00364510761894652 0)
(1.037842118112769 0.04173521854427575 0)
(1.304122039482105 0.151436671629308 2.254285769597731e-19)
(1.077552863514959 0.0004214170444451779 2.333274588941175e-20)
(1.01608207832943 0.03022400820696123 4.467252888476365e-20)
(1.08045736002898 0.003899787176895022 -2.246711386608639e-20)
(1.055610623294106 -0.02125456590632107 -7.045463459778784e-21)
(-0.3889075547505104 -0.04768994131039084 0)
(0.9997354180689715 0.01275500162933046 0)
(0.1214569679606714 0.05331482732960453 -9.452445439825897e-20)
(1.006250496854633 0.02020347156083036 -4.003905660466473e-20)
(1.006431405090559 -0.02720531633127771 0)
(1.001269496025676 0.0053114134023193 -4.871170476440169e-21)
(1.082049038715283 -0.04242991695536167 0)
(0.9938925376522999 -0.01839441044955789 -8.128197021945621e-21)
(1.101448055186986 -0.0533171452316863 0)
(1.443854283187985 0.1702216272081848 0)
(1.054896270171598 -0.01202013924646737 0)
(0.9912725203435477 -0.02500897815366566 -4.174401942389769e-20)
(0.9959551201962581 -0.02872258098293265 -3.530810600414556e-21)
(1.015686458890257 -0.02172886138522574 -2.140907561109809e-20)
(0.9965840819657522 0.0168160610809103 -5.420052942789664e-20)
(0.9961382075277587 0.009764731843840026 -1.457260296853296e-20)
(0.995413193260026 -0.02803550591086891 0)
(1.00177715102912 0.02388668602404707 1.880648762531288e-20)
(1.047883545200888 -0.02651231000762147 0)
(1.111074686549173 -0.03625137497951825 2.541217898188331e-19)
(0.9954207327854606 0.01654098759646657 4.477154352756695e-20)
(0.6150347197358618 -0.008695344783146106 0)
(1.152729279255022 0.163070081539909 5.403914523874514e-22)
(0.8306336630137789 -0.07955643039485963 0)
(1.138340657946585 0.07265934134144303 -2.783379189558522e-19)
(1.315333069746282 -0.3890005610896243 1.282078399898944e-19)
(1.069814769028225 0.06638699960300457 -1.242237867267078e-20)
(1.011844742515199 -0.03102056820149277 0)
(0.955533720631049 -0.2153494680618243 0)
(0.546199065700236 0.1768878136425327 0)
(1.015901182594424 0.01244449080588018 1.119812111284807e-21)
(0.7056637742857542 -0.01847944965661085 0)
(0.9990921477401958 0.01626440136694033 3.447470692211197e-20)
(1.027183110197063 -0.001834147867717572 -2.692790455062373e-20)
(1.078990691318918 -0.008033937973785047 2.644036673788415e-21)
(1.054680863267379 -0.02751000882949652 2.585464294613874e-20)
(1.042810211417723 0.01161797130637799 0)
(1.058592846714921 0.02032687839803345 -8.649819557981772e-21)
(1.050346131307245 0.03636084063193167 -1.773696950760839e-20)
(0.9838555087427278 -0.02248325442128397 0)
(0.6248825433054377 0.005106914147011574 9.169099465624326e-20)
(0.8941567914632718 -0.0059464155104589 -8.844624781352277e-20)
(0.9093663340981294 0.005231076683010646 1.451722149179484e-20)
(0.6296410037457775 -0.006442988895285763 1.410197561356223e-20)
(0.9810293161209003 0.0001892152842712245 2.462040908567868e-20)
(1.004410992209661 -0.01751571640509234 -3.347824329066581e-20)
(0.983332323154135 -0.03248353161103053 -2.789249008131549e-20)
(1.085637132343739 0.001611112214369949 0)
(1.019456138415001 0.005324959051495604 1.037728861786633e-20)
(1.132592631131102 0.04839485239296441 1.343057056708383e-19)
(1.031177531124426 0.04213893130585512 0)
(1.022628046572565 0.002592793507606036 0)
(1.583160070812624 -0.168196415815086 4.368236931539296e-19)
(1.057119296994955 -0.04059636862897918 0)
(1.020149992596702 0.0106952623540728 -3.634301047759969e-20)
(1.082367856816713 0.005642795698401291 0)
(0.492384914915147 0.00218700797719943 0)
(0.002649993103336111 0.01260629979725953 0)
(0.9912616166123192 -0.02369770559472711 1.249784982175836e-20)
(1.301204921747932 -0.0966932730708672 3.679835247850054e-19)
(1.031048423878889 0.03596141820774241 0)
(1.022477388169058 0.003578752459186694 -2.183287189608482e-20)
(0.9334915406384934 -0.1607013418486915 -5.695908374153965e-21)
(1.256712767656796 0.07469609124140383 0)
(0.5976842601366766 0.7296898425624103 0)
(1.30861803443244 0.1414528779985335 1.043238454249194e-19)
(1.675938794154944 -0.02651772938980532 0)
(1.060133190571414 0.130792335177541 0)
(0.7228175314364019 -0.007888838207873443 4.143238016076204e-21)
(1.046233466796009 0.0461087441099252 0)
(0.7544085550060143 0.1186588326188265 1.387277260456008e-19)
(0.996804852727466 -0.01633944111055755 3.58278671316516e-19)
(1.03911884426423 -0.03987559266884907 2.728983887355277e-20)
(-0.3765027270990364 -0.05044811833801366 0)
(1.072248033878368 -0.01624114772053439 0)
(1.084303499599193 -0.009391116263561221 0)
(0.6484786084567243 -0.5037136489098396 -2.484821226297322e-19)
(0.9898776649730827 -0.0003462752290497656 0)
(1.092332741842452 -0.02183343194925348 6.505220848927154e-22)
(1.1879403047488 0.1207515347217131 -2.038548088836754e-19)
(1.099465335703561 -0.04567110468963938 0)
(1.005951913929052 -0.02079653627916636 0)
(0.7733054699767424 -0.18783301586311 -1.627531139452471e-19)
(0.8841174088429394 -0.1392975702402536 1.458549238354438e-19)
(1.033870999021804 0.01340848183141168 -2.064825553745805e-20)
(1.023129266007433 -0.00903220564247993 -4.329993514256517e-20)
(0.8747460657514291 0.003399959538218115 2.14188835881349e-22)
(1.504609351650106 -0.1948200118445172 0)
(1.308403924476663 0.1111015619162844 2.978554324247957e-20)
(1.241015755573152 -0.07682757151827779 -3.287382684158478e-21)
(1.095779444821381 -0.01869875651628746 -4.008373991472817e-20)
(1.03611396727466 -0.01735654138840548 3.040699574159519e-20)
(1.092820156233902 -0.03910714295063211 9.497015318171186e-20)
(1.032166488905821 0.02061112553854278 0)
(1.051127170140057 -0.03565369997252568 0)
(1.115911970392128 -0.00897841093126615 0)
(1.100145298720008 -0.04033136771387372 0)
(0.9982904342564013 0.01087831653844281 0)
(1.153071668641442 0.08085244045356255 9.441085483113496e-20)
(1.340827719479403 -0.1586664649228784 0)
(1.039430249645659 -0.02743040302885827 -2.590562458337484e-22)
(1.047946737787 0.05379069665842399 0)
(1.010156234317883 0.0141878644795938 -3.811395095413823e-20)
(1.033637892302735 -0.007547250886975722 9.338361636509089e-21)
(1.088955650366979 0.01341958300442011 -3.182276282065607e-20)
(1.084544386129001 -0.02838142266034803 0)
(1.071823917460184 0.001974776300779139 0)
(1.102264099407599 0.09269575035219797 -1.40053362062892e-18)
(0.9352308013869211 -0.1493824354228768 -7.099107782566999e-20)
(1.176513598477325 0.1170081098170969 1.147746332172092e-19)
(-0.4586735314962906 -0.02883877513491509 -2.911984028979173e-19)
(1.018069009149696 0.02952999897012491 -8.594659686272326e-20)
(1.006839346526809 0.001708503041643555 0)
(-0.2433686930829801 -0.005334534725847273 3.574473088124722e-19)
(-0.03254222797516231 0.3071677730686957 7.512839040257709e-21)
(0.9952077309765486 -0.006281564808300917 9.079830087662225e-20)
(0.1831179592531302 -0.04504368788715626 1.283924887730382e-19)
(1.08631106655691 0.09028216858880581 1.413940212352071e-20)
(0.09350015526683121 -0.1098436344026676 -5.426030058152936e-20)
(1.10838170562422 0.003065413824235443 0)
(1.09570394505158 0.249857181534318 0)
(1.021050260507072 0.02156823139621507 -1.682775944668423e-20)
(1.06205639533564 0.05533506738414978 0)
(1.025190482940282 0.02352156978333179 -8.277738066655042e-21)
(1.262353367134428 -0.5486808617970784 8.006567647689278e-19)
(-0.1053444019104615 -0.2413173506387442 2.088859675289793e-19)
(1.300483612293595 0.1116923079335425 -6.149999391593999e-19)
(1.123215031182524 -0.0007396954822105025 0)
(1.125580257824924 0.1075218431386405 0)
(0.5209785464229499 0.07633268223034093 2.408897637286189e-19)
(1.023384596592392 -0.02030819515457854 9.564491405460604e-20)
(1.006197721332972 -0.02314642068888149 0)
(1.211660003271594 0.2706134660794997 -9.750198474206004e-20)
(1.257488670158483 0.126281629317294 -1.503970872469864e-19)
(1.026516585131376 0.003131252792565443 1.585263594320948e-20)
(1.297449292293277 -0.08517762276203811 -4.958423397660756e-19)
(0.3074847898594993 -0.02305051710502691 2.91207451764873e-19)
(0.8332758494598939 -0.1498100627780984 6.905071534701961e-19)
(1.042749010774593 0.05888496449536193 1.101605258670542e-19)
(1.038443254764293 0.002886646719648988 1.520862093968755e-21)
(1.000804256043985 0.0192210528662605 2.855730638947604e-20)