/*--------------------------------*- C++ -*----------------------------------*\
| =========                 |                                                 |
| \\      /  F ield         | OpenFOAM: The Open Source CFD Toolbox           |
|  \\    /   O peration     | Version:  2412                                  |
|   \\  /    A nd           | Website:  www.openfoam.com                      |
|    \\/     M anipulation  |                                                 |
\*---------------------------------------------------------------------------*/
FoamFile
{
    version     2.0;
    format      ascii;
    arch        "LSB;label=32;scalar=64";
    class       volVectorField;
    location    "0.8";
    object      cellDisplacement;
}
// * * * * * * * * * * * * * * * * * * * * * * * * * * * * * * * * * * * * * //

dimensions      [0 1 0 0 0 0 0];

internalField   nonuniform List<vector> 
256
(
(-0.0210903 0.00211487 0)
(-0.0212008 -0.00112634 0)
(-0.0198113 -0.0039542 0)
(-0.0173068 -0.00586246 0)
(-0.0139816 -0.00653907 0)
(-0.0103011 -0.00598389 0)
(-0.00663146 -0.00444608 0)
(-0.00311108 -0.0022641 0)
(-0.062489 0.00517838 0)
(-0.0625736 -0.00387855 0)
(-0.0589807 -0.0117826 0)
(-0.0523897 -0.0172919 0)
(-0.0435926 -0.0196532 0)
(-0.0338015 -0.0188782 0)
(-0.0237774 -0.0153893 0)
(-0.013895 -0.00986348 0)
(-0.101916 0.00699996 0)
(-0.101666 -0.00714074 0)
(-0.0962086 -0.0194353 0)
(-0.0863487 -0.0281913 0)
(-0.0734349 -0.032483 0)
(-0.0588723 -0.0321842 0)
(-0.0437844 -0.0278169 0)
(-0.0286476 -0.0201472 0)
(-0.139494 0.00763736 0)
(-0.138671 -0.0109619 0)
(-0.13166 -0.0271207 0)
(-0.119315 -0.0388905 0)
(-0.103248 -0.0452158 0)
(-0.0851227 -0.0459675 0)
(-0.0661466 -0.0416012 0)
(-0.0468541 -0.0328754 0)
(-0.175454 0.00708078 0)
(-0.173962 -0.0154842 0)
(-0.165534 -0.0350614 0)
(-0.151267 -0.0496263 0)
(-0.13294 -0.0581334 0)
(-0.112195 -0.0603386 0)
(-0.0903643 -0.0566894 0)
(-0.0679828 -0.0479019 0)
(-0.209884 0.00527925 0)
(-0.20765 -0.020816 0)
(-0.198005 -0.0434843 0)
(-0.182309 -0.0607193 0)
(-0.162324 -0.0714482 0)
(-0.139782 -0.0754671 0)
(-0.115979 -0.0731233 0)
(-0.0914374 -0.065106 0)
(-0.24301 0.00211573 0)
(-0.239884 -0.0271608 0)
(-0.22918 -0.0526302 0)
(-0.212391 -0.072398 0)
(-0.191315 -0.0854664 0)
(-0.167588 -0.0915533 0)
(-0.142534 -0.090998 0)
(-0.116655 -0.0844969 0)
(-0.274867 -0.00255452 0)
(-0.270738 -0.0346839 0)
(-0.259131 -0.062764 0)
(-0.241553 -0.0850102 0)
(-0.219734 -0.100443 0)
(-0.195323 -0.10885 0)
(-0.169591 -0.110495 0)
(-0.142992 -0.106094 0)
(-0.305512 -0.00896762 0)
(-0.300329 -0.0436968 0)
(-0.287892 -0.0742004 0)
(-0.269694 -0.0988363 0)
(-0.247434 -0.116743 0)
(-0.222687 -0.127665 0)
(-0.196685 -0.131861 0)
(-0.169874 -0.130124 0)
(-0.334921 -0.0174111 0)
(-0.328627 -0.0545013 0)
(-0.315421 -0.0873001 0)
(-0.296741 -0.114316 0)
(-0.274201 -0.134742 0)
(-0.249314 -0.148391 0)
(-0.223314 -0.155466 0)
(-0.196574 -0.156841 0)
(-0.363112 -0.0283506 0)
(-0.355642 -0.0675891 0)
(-0.34165 -0.102554 0)
(-0.322528 -0.131912 0)
(-0.299758 -0.154977 0)
(-0.274794 -0.171527 0)
(-0.248833 -0.181778 0)
(-0.222289 -0.186655 0)
(-0.389853 -0.042331 0)
(-0.381075 -0.0834775 0)
(-0.366242 -0.120465 0)
(-0.346644 -0.15218 0)
(-0.323645 -0.177987 0)
(-0.298518 -0.197679 0)
(-0.272447 -0.211424 0)
(-0.245888 -0.220164 0)
(-0.414685 -0.0600048 0)
(-0.404394 -0.102769 0)
(-0.388586 -0.141661 0)
(-0.36837 -0.175736 0)
(-0.34493 -0.204443 0)
(-0.319451 -0.227572 0)
(-0.292956 -0.245196 0)
(-0.265876 -0.258229 0)
(-0.436756 -0.0821986 0)
(-0.424739 -0.126252 0)
(-0.407751 -0.166867 0)
(-0.386652 -0.203321 0)
(-0.362361 -0.235157 0)
(-0.335895 -0.262074 0)
(-0.308231 -0.28403 0)
(-0.279759 -0.301774 0)
(-0.454165 -0.109241 0)
(-0.44022 -0.15403 0)
(-0.421752 -0.196128 0)
(-0.399336 -0.234959 0)
(-0.373652 -0.270052 0)
(-0.34537 -0.301105 0)
(-0.315233 -0.327996 0)
(-0.283559 -0.351101 0)
(-0.462023 -0.139432 0)
(-0.446132 -0.184047 0)
(-0.425944 -0.226889 0)
(-0.401654 -0.267547 0)
(-0.373495 -0.305627 0)
(-0.34174 -0.340764 0)
(-0.306694 -0.37262 0)
(-0.268694 -0.400887 0)
(-0.00314066 -0.00217192 0)
(-0.00575359 -0.00422028 0)
(-0.00770501 -0.00638635 0)
(-0.00895068 -0.00880544 0)
(-0.00940159 -0.0115193 0)
(-0.00894099 -0.0144017 0)
(-0.00750184 -0.0172043 0)
(-0.00516568 -0.0196357 0)
(-0.0137742 -0.00975585 0)
(-0.0204409 -0.0156976 0)
(-0.0251353 -0.0220909 0)
(-0.0277606 -0.0291816 0)
(-0.028072 -0.036913 0)
(-0.0258726 -0.0449592 0)
(-0.0210749 -0.0526065 0)
(-0.0139517 -0.0588744 0)
(-0.0280142 -0.020208 0)
(-0.0374325 -0.0297893 0)
(-0.0436173 -0.0401123 0)
(-0.0465423 -0.0515144 0)
(-0.0458455 -0.0637978 0)
(-0.0412588 -0.0762836 0)
(-0.0328186 -0.0879106 0)
(-0.0209836 -0.0969837 0)
(-0.0454529 -0.0334629 0)
(-0.0562892 -0.0463703 0)
(-0.0628301 -0.0603807 0)
(-0.0650863 -0.0757626 0)
(-0.0625662 -0.0920164 0)
(-0.0550724 -0.108249 0)
(-0.0427358 -0.122897 0)
(-0.0263552 -0.133881 0)
(-0.0655428 -0.049366 0)
(-0.0766261 -0.0654272 0)
(-0.0824451 -0.082839 0)
(-0.0830917 -0.101748 0)
(-0.0780893 -0.12149 0)
(-0.0672313 -0.140727 0)
(-0.0508436 -0.157512 0)
(-0.0300991 -0.169684 0)
(-0.0877858 -0.0678959 0)
(-0.0979387 -0.0868534 0)
(-0.102106 -0.107433 0)
(-0.100325 -0.129475 0)
(-0.0921996 -0.152049 0)
(-0.0775977 -0.173494 0)
(-0.0571069 -0.191666 0)
(-0.0322204 -0.204346 0)
(-0.11156 -0.0889691 0)
(-0.119767 -0.110671 0)
(-0.121357 -0.134081 0)
(-0.116439 -0.158772 0)
(-0.104641 -0.183548 0)
(-0.0860293 -0.206483 0)
(-0.0614433 -0.225344 0)
(-0.0326241 -0.23802 0)
(-0.136288 -0.112665 0)
(-0.141545 -0.136848 0)
(-0.139749 -0.162746 0)
(-0.131037 -0.189599 0)
(-0.115134 -0.215888 0)
(-0.0923331 -0.239612 0)
(-0.0637088 -0.258536 0)
(-0.031212 -0.270724 0)
(-0.161263 -0.139047 0)
(-0.162704 -0.165504 0)
(-0.15676 -0.193472 0)
(-0.143678 -0.221871 0)
(-0.123329 -0.249038 0)
(-0.0962326 -0.272868 0)
(-0.0636792 -0.291285 0)
(-0.027726 -0.302544 0)
(-0.185767 -0.168366 0)
(-0.182525 -0.196767 0)
(-0.171756 -0.226322 0)
(-0.15381 -0.255672 0)
(-0.128762 -0.282985 0)
(-0.0973379 -0.30625 0)
(-0.0610191 -0.323547 0)
(-0.0219313 -0.33333 0)
(-0.208901 -0.200957 0)
(-0.200184 -0.230961 0)
(-0.183956 -0.261536 0)
(-0.160716 -0.291067 0)
(-0.130775 -0.31773 0)
(-0.095114 -0.339656 0)
(-0.0552824 -0.355145 0)
(-0.0133363 -0.363101 0)
(-0.229405 -0.237361 0)
(-0.214442 -0.268436 0)
(-0.192186 -0.299261 0)
(-0.163341 -0.32808 0)
(-0.128501 -0.353141 0)
(-0.0887852 -0.372881 0)
(-0.0457961 -0.385989 0)
(-0.00138917 -0.391692 0)
(-0.245484 -0.278217 0)
(-0.223497 -0.309567 0)
(-0.194741 -0.339616 0)
(-0.160212 -0.366577 0)
(-0.120658 -0.388982 0)
(-0.0772989 -0.405628 0)
(-0.0316512 -0.415654 0)
(0.0147229 -0.418664 0)
(-0.2544 -0.324249 0)
(-0.224615 -0.35467 0)
(-0.189147 -0.382425 0)
(-0.149184 -0.406002 0)
(-0.105585 -0.424435 0)
(-0.0594171 -0.436991 0)
(-0.0118632 -0.443261 0)
(0.0357833 -0.443121 0)
(-0.251523 -0.375596 0)
(-0.213676 -0.40297 0)
(-0.172186 -0.42606 0)
(-0.127902 -0.444259 0)
(-0.0814977 -0.457235 0)
(-0.0337322 -0.464751 0)
(0.0145513 -0.466697 0)
(0.0625159 -0.463107 0)
(-0.228106 -0.425293 0)
(-0.185322 -0.445604 0)
(-0.140753 -0.461623 0)
(-0.094828 -0.473196 0)
(-0.0479901 -0.480212 0)
(-0.000689962 -0.482604 0)
(0.0466168 -0.480347 0)
(0.0934746 -0.473465 0)
)
;

boundaryField
{
    walls
    {
        type            cellMotion;
        value           uniform (0 0 0);
    }
    cylinder
    {
        type            cellMotion;
        value           nonuniform List<vector> 
16
(
(-0.462023 -0.139432 0)
(-0.446132 -0.184047 0)
(-0.425944 -0.226889 0)
(-0.401654 -0.267547 0)
(-0.373495 -0.305627 0)
(-0.34174 -0.340764 0)
(-0.306694 -0.37262 0)
(-0.268694 -0.400887 0)
(-0.228106 -0.425293 0)
(-0.185322 -0.445604 0)
(-0.140753 -0.461623 0)
(-0.094828 -0.473196 0)
(-0.0479901 -0.480212 0)
(-0.000689962 -0.482604 0)
(0.0466168 -0.480347 0)
(0.0934746 -0.473465 0)
)
;
    }
    outlet
    {
        type            cellMotion;
        value           nonuniform List<vector> 0();
    }
    inlet
    {
        type            cellMotion;
        value           uniform (0 0 0);
    }
    frontAndBack
    {
        type            empty;
    }
    procBoundary2to0
    {
        type            processor;
        value           nonuniform List<vector> 
16
(
(-0.00211844 -0.0210522 0)
(-0.00518691 -0.0624897 0)
(-0.00701114 -0.101884 0)
(-0.00764054 -0.139519 0)
(-0.00708753 -0.175455 0)
(-0.00526536 -0.209939 0)
(-0.00210896 -0.243035 0)
(0.00259558 -0.274938 0)
(0.00899309 -0.30555 0)
(0.017481 -0.33499 0)
(0.0284031 -0.363152 0)
(0.0424305 -0.389898 0)
(0.0600944 -0.414709 0)
(0.0823032 -0.436765 0)
(0.109294 -0.454163 0)
(0.139432 -0.462023 0)
)
;
    }
    procBoundary2to3
    {
        type            processor;
        value           nonuniform List<vector> 
16
(
(-0.0196145 0.00515316 0)
(-0.0589037 0.0139283 0)
(-0.0969705 0.0209548 0)
(-0.133906 0.0263209 0)
(-0.169657 0.0300761 0)
(-0.204349 0.0321921 0)
(-0.237971 0.032623 0)
(-0.270702 0.0312022 0)
(-0.302478 0.0277549 0)
(-0.33329 0.0219463 0)
(-0.363036 0.0133928 0)
(-0.391646 0.00143544 0)
(-0.418622 -0.0146396 0)
(-0.443099 -0.0357132 0)
(-0.463099 -0.0624715 0)
(-0.473465 -0.0934746 0)
)
;
    }
}


// ************************************************************************* //
