/*--------------------------------*- C++ -*----------------------------------*\
| =========                 |                                                 |
| \\      /  F ield         | OpenFOAM: The Open Source CFD Toolbox           |
|  \\    /   O peration     | Version:  2412                                  |
|   \\  /    A nd           | Website:  www.openfoam.com                      |
|    \\/     M anipulation  |                                                 |
\*---------------------------------------------------------------------------*/
FoamFile
{
    version     2.0;
    format      ascii;
    arch        "LSB;label=32;scalar=64";
    class       surfaceScalarField;
    location    "0.8";
    object      meshPhi;
}
// * * * * * * * * * * * * * * * * * * * * * * * * * * * * * * * * * * * * * //

dimensions      [0 3 -1 0 0 0 0];

internalField   nonuniform List<scalar> 
480
(
0.0018353
-0.0014604
0.00185215
-0.000371811
0.00174335
0.000669223
0.00162129
0.00154402
0.00141984
0.00210416
0.0011745
0.00233911
0.00087498
0.00241038
0.00255591
0.000751615
0.00535826
-0.0026424
0.00545128
-0.000654913
0.00513404
0.0012109
0.00478597
0.00279076
0.00427441
0.00388141
0.00364186
0.00444065
0.0028106
0.00464324
0.00480898
0.00241827
0.00850235
-0.00359412
0.00870005
-0.00092759
0.00832279
0.0016132
0.00784241
0.00380505
0.00717805
0.00535623
0.00631147
0.00622113
0.00508284
0.00654247
0.00666725
0.00442721
0.0112208
-0.00429719
0.0114491
-0.00107744
0.011297
0.00199072
0.0108166
0.00463426
0.0101114
0.00654802
0.00913178
0.00767908
0.00764527
0.00812025
0.00821894
0.00679284
0.0137176
-0.0047539
0.0139834
-0.00115893
0.0140978
0.00231144
0.0137185
0.00527929
0.0130677
0.00745308
0.012092
0.00879928
0.0104922
0.00935003
0.00945339
0.00955175
0.0161188
-0.004881
0.0165879
-0.0010413
0.0167965
0.00259348
0.0165603
0.00572166
0.016054
0.00807198
0.0151853
0.00958135
0.013598
0.0102229
0.0103552
0.0127081
0.0185077
-0.00487966
0.0191685
-0.000888487
0.0194281
0.00279496
0.0193714
0.00597663
0.0190737
0.00842123
0.018358
0.00999408
0.0168918
0.0106636
0.0108259
0.0161982
0.0210321
-0.00478577
0.0216737
-0.000770657
0.0220261
0.00288316
0.0221638
0.00601467
0.0220829
0.00842613
0.0215596
0.00999279
0.0203265
0.0106758
0.010883
0.0199867
0.0236101
-0.00455793
0.0241619
-0.000669782
0.0245964
0.00284324
0.0249114
0.00581565
0.0250596
0.00812259
0.0248169
0.00962766
0.0239641
0.0103051
0.0105615
0.0240964
0.0261538
-0.00428611
0.0266614
-0.000666764
0.0271752
0.00262737
0.0276846
0.0054118
0.0280936
0.00754193
0.0282325
0.0089561
0.0279374
0.00965027
0.00994329
0.0286426
0.028696
-0.00396262
0.0292216
-0.000699305
0.0298735
0.00227419
0.0306124
0.00479386
0.0313564
0.00673256
0.0319962
0.00804741
0.0324227
0.00874207
0.00900618
0.0338219
0.0312585
-0.00333924
0.0318691
-0.000605475
0.0327338
0.0019125
0.0338002
0.00404991
0.03502
0.0057201
0.0362776
0.00689047
0.0375179
0.00752168
0.00774012
0.039651
0.0338632
-0.00232123
0.0345976
-0.000217737
0.0357423
0.00171885
0.0372512
0.00336439
0.0390524
0.00468035
0.0410518
0.00562321
0.0431534
0.00612725
0.00630037
0.0459863
0.0364067
-0.000897167
0.037323
0.000492369
0.038809
0.00176751
0.0408172
0.00285443
0.0432397
0.00373863
0.0460381
0.00439383
0.0490631
0.00476964
0.00490168
0.0526183
0.0384886
0.000749946
0.039647
0.00138028
0.0415071
0.00196159
0.0440133
0.00247635
0.047066
0.00290989
0.0506188
0.0032603
0.0545262
0.00350638
0.00364462
0.0587213
0.0361337
0.0376087
0.0397355
0.0424325
0.0455996
0.0491295
0.0528774
0.0566452
0.000797755
-0.00130839
0.000941643
-0.00203094
0.00109672
-0.00297993
0.00120141
-0.00368191
0.00127404
-0.00407287
0.00134357
-0.00411992
0.00145364
-0.0038159
-0.00310975
0.00252401
-0.00326155
0.00298908
-0.00447748
0.00339601
-0.00607322
0.00363131
-0.00710523
0.00382058
-0.00758167
0.00403735
-0.00756441
0.00434628
-0.00695051
-0.00563164
0.00452284
-0.00560001
0.00521275
-0.00696053
0.00582764
-0.00888424
0.00614703
-0.0102242
0.00636219
-0.0107082
0.00672717
-0.0104988
0.00719032
-0.00958036
-0.0077009
0.00676919
-0.00813655
0.00743099
-0.00931058
0.00817946
-0.011108
0.00868999
-0.0125953
0.00895379
-0.0132117
0.00942523
-0.012837
0.00997367
-0.0115508
-0.00922228
0.00936453
-0.0108305
0.00988282
-0.0119045
0.0104908
-0.0133529
0.0111694
-0.0145125
0.0116431
-0.0151309
0.012156
-0.0146865
0.0126911
-0.0130357
-0.0102852
0.0123625
-0.013437
0.0128479
-0.0144813
0.0132054
-0.0157519
0.0138131
-0.0164736
0.0144267
-0.0166718
0.0149114
-0.0159247
0.0153463
-0.0139364
-0.010847
0.0157057
-0.0157402
0.0162037
-0.0167139
0.0164401
-0.0177723
0.0168405
-0.0181334
0.0173239
-0.0178267
0.0176896
-0.0166366
0.0179968
-0.0143641
-0.0110591
0.0193607
-0.0176051
0.0197789
-0.0184306
0.0199357
-0.0191695
0.0201079
-0.0191309
0.0203203
-0.0183456
0.0204943
-0.0167599
0.0206737
-0.0142479
-0.0108541
0.0233056
-0.0188951
0.0235594
-0.0195363
0.0235492
-0.0198614
0.0234637
-0.0193873
0.0233873
-0.0181761
0.023335
-0.0162637
0.0233721
-0.0136104
-0.0102406
0.0276089
-0.0195829
0.0275719
-0.0199421
0.0273075
-0.0198098
0.0269241
-0.0189243
0.026534
-0.0173688
0.0262312
-0.0152594
0.0260739
-0.0125929
-0.0093564
0.0323957
-0.0195714
0.0319112
-0.0196266
0.0312529
-0.019011
0.030466
-0.0177083
0.0297132
-0.0158826
0.0291243
-0.0136677
0.0287515
-0.0111007
-0.00815497
0.0377345
-0.0185139
0.0366128
-0.0183051
0.0353532
-0.0172034
0.0340706
-0.0155604
0.0329044
-0.0135779
0.0320125
-0.0113783
0.0314425
-0.0090421
-0.00645838
0.0435051
-0.0159396
0.0415635
-0.015515
0.0395759
-0.0140986
0.037709
-0.0123241
0.0360937
-0.0104135
0.0348819
-0.00845819
0.0340943
-0.00645962
-0.00436059
0.0494801
-0.0114621
0.0466087
-0.0109425
0.0437816
-0.0095529
0.0412428
-0.00802095
0.039152
-0.00650808
0.0375853
-0.00503297
0.0365707
-0.00356838
-0.00209232
0.0547849
-0.0047794
0.0508297
-0.00432604
0.0471606
-0.00354816
0.0440105
-0.00276131
0.0414867
-0.00200201
0.039631
-0.00126745
0.0384828
-0.000548015
0.000168015
0.0518162
0.0472944
0.0433997
0.0402264
0.0378203
0.0362051
0.035392
)
;

boundaryField
{
    walls
    {
        type            calculated;
        value           uniform 0;
    }
    cylinder
    {
        type            calculated;
        value           nonuniform List<scalar> 
16
(
8.03875e-12
-9.87027e-12
-3.27399e-12
5.95697e-12
-1.67745e-11
1.21528e-11
1.88197e-11
-9.52623e-12
9.52745e-12
-1.88171e-11
-1.21524e-11
1.6776e-11
-5.95619e-12
3.27514e-12
9.87054e-12
-8.03828e-12
)
;
    }
    outlet
    {
        type            calculated;
        value           nonuniform List<scalar> 0();
    }
    inlet
    {
        type            calculated;
        value           uniform 0;
    }
    frontAndBack
    {
        type            empty;
    }
    procBoundary2to0
    {
        type            processor;
        value           nonuniform List<scalar> 
16
(
0.00157653
0.00469953
0.00771545
0.0106314
0.0133778
0.0158437
0.0182557
0.0208516
0.0234975
0.0260841
0.0286279
0.0311546
0.0336901
0.0361274
0.0380772
0.0353717
)
;
    }
    procBoundary2to3
    {
        type            processor;
        value           nonuniform List<scalar> 
16
(
-0.00156331
-0.00461822
-0.00751551
-0.0102986
-0.0129294
-0.0153241
-0.0177137
-0.0203274
-0.0230192
-0.0256708
-0.0282995
-0.0309315
-0.0335779
-0.0361002
-0.0380763
-0.0353718
)
;
    }
}


// ************************************************************************* //
