/*--------------------------------*- C++ -*----------------------------------*\
| =========                 |                                                 |
| \\      /  F ield         | OpenFOAM: The Open Source CFD Toolbox           |
|  \\    /   O peration     | Version:  2412                                  |
|   \\  /    A nd           | Website:  www.openfoam.com                      |
|    \\/     M anipulation  |                                                 |
\*---------------------------------------------------------------------------*/
FoamFile
{
    version     2.0;
    format      ascii;
    arch        "LSB;label=32;scalar=64";
    class       pointVectorField;
    location    "0.8";
    object      pointDisplacement;
}
// * * * * * * * * * * * * * * * * * * * * * * * * * * * * * * * * * * * * * //

dimensions      [0 1 0 0 0 0 0];

internalField   nonuniform List<vector> 
578
(
(0 0 0)
(0 0 0)
(0 0 0)
(0 0 0)
(0 0 0)
(0 0 0)
(0 0 0)
(0 0 0)
(0 0 0)
(-0.0405643 0.00662034 0)
(-0.0418953 0.000585254 0)
(-0.0407074 -0.00518956 0)
(-0.0371853 -0.00974238 0)
(-0.031867 -0.0123641 0)
(-0.0254477 -0.0127888 0)
(-0.0186326 -0.0111875 0)
(-0.0118352 -0.00798501 0)
(-0.0082689 -0.00586396 0)
(-0.0801106 0.011787 0)
(-0.082214 0.000298808 0)
(-0.0799159 -0.0105643 0)
(-0.0735393 -0.0191922 0)
(-0.0639912 -0.0244294 0)
(-0.0524621 -0.0258258 0)
(-0.04008 -0.0235887 0)
(-0.0275335 -0.0183167 0)
(-0.0208143 -0.0148009 0)
(-0.118113 0.0154942 0)
(-0.120486 -0.000861772 0)
(-0.117104 -0.016171 0)
(-0.108435 -0.0284248 0)
(-0.0956346 -0.0362171 0)
(-0.080211 -0.0389886 0)
(-0.063514 -0.0369189 0)
(-0.0463868 -0.0306359 0)
(-0.0369339 -0.0264463 0)
(-0.154669 0.0177889 0)
(-0.15694 -0.00293179 0)
(-0.152503 -0.0221651 0)
(-0.14199 -0.037689 0)
(-0.126738 -0.0479864 0)
(-0.10842 -0.0524388 0)
(-0.0884966 -0.0511781 0)
(-0.0678814 -0.0448014 0)
(-0.0561272 -0.0406479 0)
(-0.189876 0.0186617 0)
(-0.191778 -0.0059887 0)
(-0.186328 -0.0287208 0)
(-0.17432 -0.0472363 0)
(-0.157252 -0.0599998 0)
(-0.136854 -0.0663705 0)
(-0.114623 -0.0664341 0)
(-0.0914952 -0.0607437 0)
(-0.0778486 -0.0572929 0)
(-0.223841 0.0180522 0)
(-0.225144 -0.0101523 0)
(-0.218716 -0.0360332 0)
(-0.205508 -0.0573207 0)
(-0.187124 -0.0725244 0)
(-0.165294 -0.0810057 0)
(-0.141515 -0.0828143 0)
(-0.11671 -0.0784704 0)
(-0.101527 -0.0763268 0)
(-0.256673 0.0158418 0)
(-0.257158 -0.0155803 0)
(-0.249765 -0.0443207 0)
(-0.235596 -0.0682126 0)
(-0.216284 -0.0858443 0)
(-0.19353 -0.0965984 0)
(-0.168802 -0.100501 0)
(-0.143002 -0.098058 0)
(-0.12656 -0.0977545 0)
(-0.288423 0.0118502 0)
(-0.287891 -0.0224869 0)
(-0.27955 -0.0538474 0)
(-0.264596 -0.0802139 0)
(-0.244636 -0.100271 0)
(-0.221331 -0.113443 0)
(-0.196112 -0.119743 0)
(-0.169841 -0.119677 0)
(-0.152319 -0.121673 0)
(-0.319081 0.00581892 0)
(-0.317373 -0.0311565 0)
(-0.308091 -0.0649355 0)
(-0.292462 -0.0936731 0)
(-0.272046 -0.11617 0)
(-0.248442 -0.131901 0)
(-0.223037 -0.140867 0)
(-0.196662 -0.1436 0)
(-0.178123 -0.148281 0)
(-0.348617 -0.00261971 0)
(-0.345598 -0.0419761 0)
(-0.335355 -0.0779965 0)
(-0.319107 -0.109029 0)
(-0.298332 -0.133996 0)
(-0.274546 -0.152421 0)
(-0.249096 -0.164308 0)
(-0.222796 -0.170205 0)
(-0.203181 -0.177891 0)
(-0.376936 -0.0139799 0)
(-0.37244 -0.0554507 0)
(-0.361169 -0.0935313 0)
(-0.344284 -0.126785 0)
(-0.323165 -0.15427 0)
(-0.299203 -0.175551 0)
(-0.273676 -0.190614 0)
(-0.2474 -0.200016 0)
(-0.226472 -0.210975 0)
(-0.403722 -0.0289041 0)
(-0.397518 -0.0721597 0)
(-0.385088 -0.112102 0)
(-0.367476 -0.147515 0)
(-0.345915 -0.177589 0)
(-0.321657 -0.201923 0)
(-0.295866 -0.220472 0)
(-0.269321 -0.233753 0)
(-0.246574 -0.248196 0)
(-0.428307 -0.0481614 0)
(-0.420156 -0.0928213 0)
(-0.406379 -0.134395 0)
(-0.387852 -0.171899 0)
(-0.365593 -0.204662 0)
(-0.340677 -0.232307 0)
(-0.314154 -0.254712 0)
(-0.286732 -0.272293 0)
(-0.261354 -0.290345 0)
(-0.449292 -0.0724354 0)
(-0.438978 -0.11795 0)
(-0.423623 -0.160829 0)
(-0.403881 -0.200321 0)
(-0.380512 -0.235867 0)
(-0.354336 -0.267086 0)
(-0.326203 -0.293784 0)
(-0.296723 -0.316198 0)
(-0.267344 -0.337964 0)
(-0.463197 -0.101209 0)
(-0.45064 -0.14673 0)
(-0.433515 -0.190306 0)
(-0.412176 -0.231406 0)
(-0.387041 -0.269567 0)
(-0.358575 -0.304407 0)
(-0.327273 -0.335644 0)
(-0.293561 -0.363182 0)
(-0.257996 -0.388202 0)
(-0.468873 -0.116734 0)
(-0.455173 -0.16213 0)
(-0.43709 -0.205964 0)
(-0.414797 -0.247815 0)
(-0.38851 -0.287279 0)
(-0.358481 -0.323976 0)
(-0.325 -0.357553 0)
(-0.288388 -0.387687 0)
(-0.249 -0.414087 0)
(0 0 0)
(0 0 0)
(0 0 0)
(0 0 0)
(0 0 0)
(0 0 0)
(0 0 0)
(0 0 0)
(0 0 0)
(-0.0405643 0.00662034 0)
(-0.0418953 0.000585254 0)
(-0.0407074 -0.00518956 0)
(-0.0371853 -0.00974238 0)
(-0.031867 -0.0123641 0)
(-0.0254477 -0.0127888 0)
(-0.0186326 -0.0111875 0)
(-0.0118352 -0.00798501 0)
(-0.0082689 -0.00586396 0)
(-0.0801106 0.011787 0)
(-0.082214 0.000298808 0)
(-0.0799159 -0.0105643 0)
(-0.0735393 -0.0191922 0)
(-0.0639912 -0.0244294 0)
(-0.0524621 -0.0258258 0)
(-0.04008 -0.0235887 0)
(-0.0275335 -0.0183167 0)
(-0.0208143 -0.0148009 0)
(-0.118113 0.0154942 0)
(-0.120486 -0.000861772 0)
(-0.117104 -0.016171 0)
(-0.108435 -0.0284248 0)
(-0.0956346 -0.0362171 0)
(-0.080211 -0.0389886 0)
(-0.063514 -0.0369189 0)
(-0.0463868 -0.0306359 0)
(-0.0369339 -0.0264463 0)
(-0.154669 0.0177889 0)
(-0.15694 -0.00293179 0)
(-0.152503 -0.0221651 0)
(-0.14199 -0.037689 0)
(-0.126738 -0.0479864 0)
(-0.10842 -0.0524388 0)
(-0.0884966 -0.0511781 0)
(-0.0678814 -0.0448014 0)
(-0.0561272 -0.0406479 0)
(-0.189876 0.0186617 0)
(-0.191778 -0.0059887 0)
(-0.186328 -0.0287208 0)
(-0.17432 -0.0472363 0)
(-0.157252 -0.0599998 0)
(-0.136854 -0.0663705 0)
(-0.114623 -0.0664341 0)
(-0.0914952 -0.0607437 0)
(-0.0778486 -0.0572929 0)
(-0.223841 0.0180522 0)
(-0.225144 -0.0101523 0)
(-0.218716 -0.0360332 0)
(-0.205508 -0.0573207 0)
(-0.187124 -0.0725244 0)
(-0.165294 -0.0810057 0)
(-0.141515 -0.0828143 0)
(-0.11671 -0.0784704 0)
(-0.101527 -0.0763268 0)
(-0.256673 0.0158418 0)
(-0.257158 -0.0155803 0)
(-0.249765 -0.0443207 0)
(-0.235596 -0.0682126 0)
(-0.216284 -0.0858443 0)
(-0.19353 -0.0965984 0)
(-0.168802 -0.100501 0)
(-0.143002 -0.098058 0)
(-0.12656 -0.0977545 0)
(-0.288423 0.0118502 0)
(-0.287891 -0.0224869 0)
(-0.27955 -0.0538474 0)
(-0.264596 -0.0802139 0)
(-0.244636 -0.100271 0)
(-0.221331 -0.113443 0)
(-0.196112 -0.119743 0)
(-0.169841 -0.119677 0)
(-0.152319 -0.121673 0)
(-0.319081 0.00581892 0)
(-0.317373 -0.0311565 0)
(-0.308091 -0.0649355 0)
(-0.292462 -0.0936731 0)
(-0.272046 -0.11617 0)
(-0.248442 -0.131901 0)
(-0.223037 -0.140867 0)
(-0.196662 -0.1436 0)
(-0.178123 -0.148281 0)
(-0.348617 -0.00261971 0)
(-0.345598 -0.0419761 0)
(-0.335355 -0.0779965 0)
(-0.319107 -0.109029 0)
(-0.298332 -0.133996 0)
(-0.274546 -0.152421 0)
(-0.249096 -0.164308 0)
(-0.222796 -0.170205 0)
(-0.203181 -0.177891 0)
(-0.376936 -0.0139799 0)
(-0.37244 -0.0554507 0)
(-0.361169 -0.0935313 0)
(-0.344284 -0.126785 0)
(-0.323165 -0.15427 0)
(-0.299203 -0.175551 0)
(-0.273676 -0.190614 0)
(-0.2474 -0.200016 0)
(-0.226472 -0.210975 0)
(-0.403722 -0.0289041 0)
(-0.397518 -0.0721597 0)
(-0.385088 -0.112102 0)
(-0.367476 -0.147515 0)
(-0.345915 -0.177589 0)
(-0.321657 -0.201923 0)
(-0.295866 -0.220472 0)
(-0.269321 -0.233753 0)
(-0.246574 -0.248196 0)
(-0.428307 -0.0481614 0)
(-0.420156 -0.0928213 0)
(-0.406379 -0.134395 0)
(-0.387852 -0.171899 0)
(-0.365593 -0.204662 0)
(-0.340677 -0.232307 0)
(-0.314154 -0.254712 0)
(-0.286732 -0.272293 0)
(-0.261354 -0.290345 0)
(-0.449292 -0.0724354 0)
(-0.438978 -0.11795 0)
(-0.423623 -0.160829 0)
(-0.403881 -0.200321 0)
(-0.380512 -0.235867 0)
(-0.354336 -0.267086 0)
(-0.326203 -0.293784 0)
(-0.296723 -0.316198 0)
(-0.267344 -0.337964 0)
(-0.463197 -0.101209 0)
(-0.45064 -0.14673 0)
(-0.433515 -0.190306 0)
(-0.412176 -0.231406 0)
(-0.387041 -0.269567 0)
(-0.358575 -0.304407 0)
(-0.327273 -0.335644 0)
(-0.293561 -0.363182 0)
(-0.257996 -0.388202 0)
(-0.468873 -0.116734 0)
(-0.455173 -0.16213 0)
(-0.43709 -0.205964 0)
(-0.414797 -0.247815 0)
(-0.38851 -0.287279 0)
(-0.358481 -0.323976 0)
(-0.325 -0.357553 0)
(-0.288388 -0.387687 0)
(-0.249 -0.414087 0)
(0 0 0)
(0 0 0)
(0 0 0)
(0 0 0)
(0 0 0)
(0 0 0)
(0 0 0)
(0 0 0)
(-0.0107554 -0.00793661 0)
(-0.0147541 -0.0120784 0)
(-0.0173966 -0.016599 0)
(-0.0185656 -0.0215923 0)
(-0.0180992 -0.0269423 0)
(-0.0158801 -0.0322977 0)
(-0.0119565 -0.0371009 0)
(-0.00663237 -0.0405526 0)
(-0.0249106 -0.0188448 0)
(-0.0316648 -0.0269089 0)
(-0.0357806 -0.0357134 0)
(-0.037079 -0.0453442 0)
(-0.0352917 -0.055488 0)
(-0.030288 -0.0654502 0)
(-0.0222371 -0.0741194 0)
(-0.011805 -0.080099 0)
(-0.0418063 -0.032445 0)
(-0.0500603 -0.0441545 0)
(-0.054542 -0.0569355 0)
(-0.0550378 -0.0707706 0)
(-0.0512162 -0.0850917 0)
(-0.0430018 -0.0988516 0)
(-0.0307487 -0.110448 0)
(-0.0155136 -0.118108 0)
(-0.0609968 -0.0486464 0)
(-0.0695734 -0.06375 0)
(-0.0733916 -0.0801804 0)
(-0.0722385 -0.0977565 0)
(-0.0657705 -0.115631 0)
(-0.0539985 -0.132369 0)
(-0.0375287 -0.146027 0)
(-0.0178057 -0.154676 0)
(-0.082001 -0.0673776 0)
(-0.0898101 -0.0856371 0)
(-0.092024 -0.105376 0)
(-0.0884584 -0.126199 0)
(-0.0788093 -0.146957 0)
(-0.0632188 -0.165877 0)
(-0.0425822 -0.180837 0)
(-0.0186728 -0.189896 0)
(-0.104297 -0.0885903 0)
(-0.110328 -0.109763 0)
(-0.110091 -0.132447 0)
(-0.103434 -0.155975 0)
(-0.0901445 -0.178917 0)
(-0.0705636 -0.199278 0)
(-0.0458578 -0.214881 0)
(-0.0180543 -0.223873 0)
(-0.127329 -0.112283 0)
(-0.130643 -0.136093 0)
(-0.127181 -0.161311 0)
(-0.116844 -0.186972 0)
(-0.0995585 -0.211411 0)
(-0.0758928 -0.232528 0)
(-0.0472507 -0.248193 0)
(-0.0158327 -0.256715 0)
(-0.150492 -0.138512 0)
(-0.150229 -0.164653 0)
(-0.142841 -0.191939 0)
(-0.128323 -0.219124 0)
(-0.106777 -0.244384 0)
(-0.078997 -0.265611 0)
(-0.04658 -0.280808 0)
(-0.0118287 -0.288472 0)
(-0.173108 -0.167419 0)
(-0.168476 -0.195532 0)
(-0.156534 -0.224357 0)
(-0.137419 -0.252422 0)
(-0.111429 -0.277821 0)
(-0.0795696 -0.298525 0)
(-0.043582 -0.312712 0)
(-0.00578424 -0.319134 0)
(-0.194388 -0.199264 0)
(-0.184643 -0.228918 0)
(-0.167589 -0.258679 0)
(-0.143534 -0.2869 0)
(-0.113004 -0.311695 0)
(-0.077184 -0.331188 0)
(-0.0378807 -0.343814 0)
(0.00266837 -0.348671 0)
(-0.213275 -0.234434 0)
(-0.197725 -0.265076 0)
(-0.175073 -0.295023 0)
(-0.145844 -0.322547 0)
(-0.110792 -0.345895 0)
(-0.0712328 -0.363456 0)
(-0.0289346 -0.374013 0)
(0.0140435 -0.376985 0)
(-0.228244 -0.273408 0)
(-0.206242 -0.304256 0)
(-0.177632 -0.333428 0)
(-0.143177 -0.359242 0)
(-0.103798 -0.380202 0)
(-0.060863 -0.395075 0)
(-0.0160067 -0.403028 0)
(0.028984 -0.403762 0)
(-0.237028 -0.316698 0)
(-0.208011 -0.346617 0)
(-0.173316 -0.373709 0)
(-0.133891 -0.396552 0)
(-0.0907126 -0.414054 0)
(-0.0450275 -0.425418 0)
(0.0017761 -0.4302 0)
(0.0482483 -0.428332 0)
(-0.236061 -0.364417 0)
(-0.199887 -0.391601 0)
(-0.15957 -0.414754 0)
(-0.115997 -0.433041 0)
(-0.0700103 -0.445897 0)
(-0.02257 -0.452956 0)
(0.0252853 -0.454066 0)
(0.0725037 -0.449301 0)
(-0.219569 -0.412508 0)
(-0.177877 -0.434188 0)
(-0.133808 -0.45138 0)
(-0.08795 -0.463795 0)
(-0.0408828 -0.471248 0)
(0.00676844 -0.473629 0)
(0.0543577 -0.470921 0)
(0.101234 -0.463199 0)
(-0.207213 -0.436499 0)
(-0.163431 -0.454708 0)
(-0.118075 -0.468537 0)
(-0.0715814 -0.477855 0)
(-0.0243988 -0.48257 0)
(0.0230188 -0.482638 0)
(0.0702148 -0.478057 0)
(0.116734 -0.468873 0)
(0 0 0)
(0 0 0)
(0 0 0)
(0 0 0)
(0 0 0)
(0 0 0)
(0 0 0)
(0 0 0)
(-0.0107554 -0.00793661 0)
(-0.0147541 -0.0120784 0)
(-0.0173966 -0.016599 0)
(-0.0185656 -0.0215923 0)
(-0.0180992 -0.0269423 0)
(-0.0158801 -0.0322977 0)
(-0.0119565 -0.0371009 0)
(-0.00663237 -0.0405526 0)
(-0.0249106 -0.0188448 0)
(-0.0316648 -0.0269089 0)
(-0.0357806 -0.0357134 0)
(-0.037079 -0.0453442 0)
(-0.0352917 -0.055488 0)
(-0.030288 -0.0654502 0)
(-0.0222371 -0.0741194 0)
(-0.011805 -0.080099 0)
(-0.0418063 -0.032445 0)
(-0.0500603 -0.0441545 0)
(-0.054542 -0.0569355 0)
(-0.0550378 -0.0707706 0)
(-0.0512162 -0.0850917 0)
(-0.0430018 -0.0988516 0)
(-0.0307487 -0.110448 0)
(-0.0155136 -0.118108 0)
(-0.0609968 -0.0486464 0)
(-0.0695734 -0.06375 0)
(-0.0733916 -0.0801804 0)
(-0.0722385 -0.0977565 0)
(-0.0657705 -0.115631 0)
(-0.0539985 -0.132369 0)
(-0.0375287 -0.146027 0)
(-0.0178057 -0.154676 0)
(-0.082001 -0.0673776 0)
(-0.0898101 -0.0856371 0)
(-0.092024 -0.105376 0)
(-0.0884584 -0.126199 0)
(-0.0788093 -0.146957 0)
(-0.0632188 -0.165877 0)
(-0.0425822 -0.180837 0)
(-0.0186728 -0.189896 0)
(-0.104297 -0.0885903 0)
(-0.110328 -0.109763 0)
(-0.110091 -0.132447 0)
(-0.103434 -0.155975 0)
(-0.0901445 -0.178917 0)
(-0.0705636 -0.199278 0)
(-0.0458578 -0.214881 0)
(-0.0180543 -0.223873 0)
(-0.127329 -0.112283 0)
(-0.130643 -0.136093 0)
(-0.127181 -0.161311 0)
(-0.116844 -0.186972 0)
(-0.0995585 -0.211411 0)
(-0.0758928 -0.232528 0)
(-0.0472507 -0.248193 0)
(-0.0158327 -0.256715 0)
(-0.150492 -0.138512 0)
(-0.150229 -0.164653 0)
(-0.142841 -0.191939 0)
(-0.128323 -0.219124 0)
(-0.106777 -0.244384 0)
(-0.078997 -0.265611 0)
(-0.04658 -0.280808 0)
(-0.0118287 -0.288472 0)
(-0.173108 -0.167419 0)
(-0.168476 -0.195532 0)
(-0.156534 -0.224357 0)
(-0.137419 -0.252422 0)
(-0.111429 -0.277821 0)
(-0.0795696 -0.298525 0)
(-0.043582 -0.312712 0)
(-0.00578424 -0.319134 0)
(-0.194388 -0.199264 0)
(-0.184643 -0.228918 0)
(-0.167589 -0.258679 0)
(-0.143534 -0.2869 0)
(-0.113004 -0.311695 0)
(-0.077184 -0.331188 0)
(-0.0378807 -0.343814 0)
(0.00266837 -0.348671 0)
(-0.213275 -0.234434 0)
(-0.197725 -0.265076 0)
(-0.175073 -0.295023 0)
(-0.145844 -0.322547 0)
(-0.110792 -0.345895 0)
(-0.0712328 -0.363456 0)
(-0.0289346 -0.374013 0)
(0.0140435 -0.376985 0)
(-0.228244 -0.273408 0)
(-0.206242 -0.304256 0)
(-0.177632 -0.333428 0)
(-0.143177 -0.359242 0)
(-0.103798 -0.380202 0)
(-0.060863 -0.395075 0)
(-0.0160067 -0.403028 0)
(0.028984 -0.403762 0)
(-0.237028 -0.316698 0)
(-0.208011 -0.346617 0)
(-0.173316 -0.373709 0)
(-0.133891 -0.396552 0)
(-0.0907126 -0.414054 0)
(-0.0450275 -0.425418 0)
(0.0017761 -0.4302 0)
(0.0482483 -0.428332 0)
(-0.236061 -0.364417 0)
(-0.199887 -0.391601 0)
(-0.15957 -0.414754 0)
(-0.115997 -0.433041 0)
(-0.0700103 -0.445897 0)
(-0.02257 -0.452956 0)
(0.0252853 -0.454066 0)
(0.0725037 -0.449301 0)
(-0.219569 -0.412508 0)
(-0.177877 -0.434188 0)
(-0.133808 -0.45138 0)
(-0.08795 -0.463795 0)
(-0.0408828 -0.471248 0)
(0.00676844 -0.473629 0)
(0.0543577 -0.470921 0)
(0.101234 -0.463199 0)
(-0.207213 -0.436499 0)
(-0.163431 -0.454708 0)
(-0.118075 -0.468537 0)
(-0.0715814 -0.477855 0)
(-0.0243988 -0.48257 0)
(0.0230188 -0.482638 0)
(0.0702148 -0.478057 0)
(0.116734 -0.468873 0)
)
;

boundaryField
{
    walls
    {
        type            fixedValue;
        value           uniform (0 0 0);
    }
    cylinder
    {
        type            solidBodyMotionDisplacement;
        value           nonuniform List<vector> 
34
(
(-0.468873 -0.116734 0)
(-0.468873 -0.116734 0)
(-0.455173 -0.16213 0)
(-0.455173 -0.16213 0)
(-0.43709 -0.205964 0)
(-0.43709 -0.205964 0)
(-0.414797 -0.247815 0)
(-0.414797 -0.247815 0)
(-0.38851 -0.287279 0)
(-0.38851 -0.287279 0)
(-0.358481 -0.323976 0)
(-0.358481 -0.323976 0)
(-0.325 -0.357553 0)
(-0.325 -0.357553 0)
(-0.288388 -0.387687 0)
(-0.288388 -0.387687 0)
(-0.249 -0.414087 0)
(-0.249 -0.414087 0)
(-0.207213 -0.436499 0)
(-0.207213 -0.436499 0)
(-0.163431 -0.454708 0)
(-0.163431 -0.454708 0)
(-0.118075 -0.468537 0)
(-0.118075 -0.468537 0)
(-0.0715814 -0.477855 0)
(-0.0715814 -0.477855 0)
(-0.0243988 -0.48257 0)
(-0.0243988 -0.48257 0)
(0.0230188 -0.482638 0)
(0.0230188 -0.482638 0)
(0.0702148 -0.478057 0)
(0.0702148 -0.478057 0)
(0.116734 -0.468873 0)
(0.116734 -0.468873 0)
)
;
        solidBodyMotionFunction oscillatingRotatingMotion;
        oscillatingRotatingMotionCoeffs
        {
            origin          ( 0 0 0 );
            axis            ( 0 0 1 );
            omega           1.5;
            amplitude       ( 0 0 30 );
        }
    }
    outlet
    {
        type            fixedValue;
        value           nonuniform List<vector> 0();
    }
    inlet
    {
        type            fixedValue;
        value           uniform (0 0 0);
    }
    frontAndBack
    {
        type            empty;
    }
    procBoundary2to0
    {
        type            processor;
    }
    procBoundary2to3
    {
        type            processor;
    }
}


// ************************************************************************* //
