/*--------------------------------*- C++ -*----------------------------------*\
| =========                 |                                                 |
| \\      /  F ield         | OpenFOAM: The Open Source CFD Toolbox           |
|  \\    /   O peration     | Version:  2412                                  |
|   \\  /    A nd           | Website:  www.openfoam.com                      |
|    \\/     M anipulation  |                                                 |
\*---------------------------------------------------------------------------*/
FoamFile
{
    version     2.0;
    format      ascii;
    arch        "LSB;label=32;scalar=64";
    class       surfaceScalarField;
    location    "33.8";
    object      phi;
}
// * * * * * * * * * * * * * * * * * * * * * * * * * * * * * * * * * * * * * //

dimensions      [0 3 -1 0 0 0 0];

oriented        oriented;

internalField   nonuniform List<scalar> 
1171
(
-0.945308
0.945308
0.782433
-1.09102
0.308588
-0.388362
-0.699646
1.08801
0.054692
-0.0639572
-0.277938
0.341896
-0.782433
0.0948352
0.687598
0.950058
-0.21525
-0.734808
0.86161
-1.05111
0.189505
-0.358878
-0.0357973
0.394675
-0.00471602
0.609848
-0.605132
-0.43601
0.901027
-0.465017
-0.422835
1.03514
-0.173525
0.279206
0.0741198
-0.353326
1.00412
0.031019
0.290996
-0.0117895
1.04663
-0.0425099
0.603504
-0.991866
-0.788756
0.607131
0.181625
0.376985
-0.812995
0.560714
-0.915466
0.354751
-1.07894
0.669611
0.409327
-0.642966
0.63825
0.0325046
-0.252246
0.219742
0.016081
-0.619528
0.603447
0.467451
-0.503248
-0.83591
0.877242
-0.0413321
1.01004
0.0365848
0.91584
-1.07076
0.154919
1.04179
-0.0317521
-0.70413
-0.0846259
1.25252
-0.845007
-0.407516
0.205884
-0.0795761
-0.41608
0.495656
-0.273429
0.184173
0.0892561
-0.60561
-0.485411
0.9697
-0.0538597
-0.0151806
0.873885
-0.858704
0.528107
0.724416
0.530271
0.0229129
0.444538
-0.788882
-0.104938
0.89382
0.585339
0.226943
-0.812282
0.0581476
0.548734
-0.606882
-0.507992
-0.570946
-0.383734
-0.687026
0.0286512
0.244957
-0.273608
-0.944317
-0.0253703
0.969688
0.378591
0.0160842
0.853246
0.0968123
-0.602447
-0.0405193
0.0371026
-0.825985
0.152648
0.895387
-1.04803
-0.401932
0.0200789
0.381853
-0.705557
-0.23876
-0.683411
0.836059
0.631914
0.269113
-0.582219
0.98572
-0.815018
-0.170702
-0.0170077
-0.0979053
0.114913
-0.45911
-0.0441377
-0.283512
0.915426
-0.0147252
0.445914
-0.431189
-0.463826
1.04917
0.71326
-0.818197
0.401307
-0.0836787
-0.317628
0.772906
-0.772906
-0.928843
0.0382215
-0.31616
-0.698829
0.683648
-0.0305498
-0.1437
0.17425
0.898781
-0.0248963
1.03569
-0.808742
0.22411
-0.320185
0.0960753
0.992251
-0.139005
-0.677321
-0.0394025
0.716724
0.147903
-0.231991
0.0840887
0.801736
-1.01699
-0.442586
0.311412
0.131174
0.642975
-0.626894
0.877028
-0.395452
-0.481576
0.493295
-0.694823
0.0364163
0.658407
0.179968
0.658781
0.0546375
-0.713418
0.133374
-0.0951526
-0.513469
0.111537
0.0337119
-0.899187
0.865475
-0.545408
-0.761775
0.0576448
0.50288
-0.0583421
0.275467
-0.83363
0.558164
0.424197
0.575803
0.595661
-0.558558
-0.386582
-0.0366651
0.423247
0.554546
0.21836
-0.638162
0.69631
0.0868003
0.896571
0.00185085
-0.679172
-0.76484
0.798552
0.619378
0.0903299
0.378959
-0.469289
-0.156374
0.495876
0.0528582
0.838174
-0.590029
-0.248145
0.650937
0.334782
-0.430459
0.687651
-0.597321
0.410082
0.150633
-0.0546196
-0.720794
-0.113737
0.834531
-0.124693
-0.648213
-0.612455
0.363008
0.249448
0.655559
-0.653708
0.311346
1.01644
0.0192426
-0.76484
-0.0201065
0.00309877
0.71326
0.778819
-0.778819
0.841542
-0.827182
-0.0143602
-0.454483
0.878679
-0.190849
-0.322621
0.763739
-0.669736
-0.0940033
-0.803164
0.0823705
0.110958
-0.713405
0.818197
-0.974571
-0.184057
0.20326
-0.0192031
0.127665
-0.989384
0.861719
0.552102
-0.0218309
-0.291037
0.595699
-0.304662
-0.655665
0.78333
-0.159459
0.694503
-0.870474
0.175971
1.21762
-0.728204
-0.489415
0.724199
-0.0720416
-0.003011
0.00903709
-0.00602609
-0.802294
-0.97355
0.273904
-0.698829
0.570739
-0.55066
-0.0519099
0.727206
-0.675296
0.7792
0.166108
0.492162
0.507838
0.0120206
-0.649127
0.637107
0.722873
0.115301
-0.724199
0.798552
0.180086
-0.432332
-0.0413999
0.0241034
0.0172966
0.666141
-0.437388
-0.228753
0.687598
-0.00343435
-0.279047
0.541424
0.124717
-0.0161187
0.000548252
0.0155705
0.00502967
-0.00804067
0.12283
-0.206508
-0.938278
0.0270583
-0.139726
-0.0612272
0.110984
0.765653
0.742173
-0.16637
0.449421
-0.501331
-0.163036
0.387146
0.636422
0.0511754
0.23172
-1.0589
-0.974571
0.320249
0.683648
-0.159464
0.0157639
-0.792711
0.999508
-0.206797
0.479575
-0.0977222
0.793434
0.305177
0.222786
0.0682099
-0.680601
0.680601
0.223373
0.670447
-0.0186655
0.46458
0.47699
-0.0100408
-0.0313592
0.542684
0.00941875
-0.655665
0.570574
0.193165
0.0231746
-0.0141375
-0.636422
0.189395
0.810113
0.0338036
-0.742559
0.708755
0.757287
-0.821823
0.0645359
-0.7792
-0.0303559
0.0423399
-0.011984
0.0845344
-0.132667
-0.106675
0.239342
-0.00590272
-0.010216
0.797061
-0.763257
0.843304
0.244704
-0.471712
-0.431887
0.903599
-0.0019891
0.0019891
0.166595
0.345554
0.745129
-1.09068
-0.202073
-0.560281
0.762354
-0.0208117
0.195062
0.383659
-0.235757
0.976259
-0.630705
0.708629
0.932156
-0.187027
0.192811
0.78333
0.609805
0.240061
0.637181
-0.648213
0.319399
-0.0802696
-2.80601e-05
0.0802977
0.89809
-0.165913
-0.732177
-0.567295
0.535543
0.545517
-0.567295
-0.609805
0.535543
0.00481258
0.907031
-0.0637275
-0.554546
0.471179
0.0833671
0.521085
0.614362
-1.13545
0.515218
0.46104
0.573674
0.535279
-1.10895
0.459704
0.472452
0.471179
-0.518657
-0.491127
-0.722828
-0.604438
-0.143268
-0.0045481
0.0045481
0.726492
0.516271
-1.12071
0.737168
-0.358209
-1.12868
0.400471
-0.673945
0.435184
0.0186886
-1.0303
1.01161
0.451136
0.0847894
0.8133
-1.15512
-0.991596
-0.00605318
0.997649
0.199037
-0.118136
-0.0809004
0.730919
-0.784779
0.968931
-1.06869
0.099761
0.103951
-0.69398
-0.113966
0.921502
-0.807537
-0.861079
0.96503
-0.731352
0.574962
0.15639
-0.802904
0.201824
0.60108
0.0027628
-0.0047519
0.426099
0.186192
-1.02834
0.842151
-0.73933
0.75135
1.07419
0.00735771
-1.08155
0.0825917
-0.00540261
0.42865
-0.360115
0.0399296
0.986202
-0.967514
-0.5582
-0.654389
-0.0395907
-0.153251
-1.04323
-0.0254629
0.555381
-0.105959
-0.175869
0.374905
-0.534461
0.736286
0.481576
-0.945511
-0.853722
0.0533097
-0.290666
0.727036
-0.43637
-0.0316172
-0.848866
0.578125
0.179162
-0.192575
1.00588
0.958977
0.991758
-1.01722
0.0454022
-0.0454022
-0.0854699
-0.188742
0.0706055
0.344389
-0.0241396
0.219351
0.974258
0.0155258
-0.0214285
0.657679
0.342321
0.797339
-0.60561
-0.757567
-0.602283
-0.49421
0.49421
-0.208341
-0.107819
0.649785
-0.994875
0.34509
-0.474704
-0.56793
0.353359
-1.04038
-0.997635
1.0974
-0.712909
0.673318
0.673484
0.208966
-0.88245
-0.445893
-0.170483
0.851563
-0.681081
0.0233769
0.00829899
0.00272604
-0.011025
0.0727547
-0.261497
1.00314
0.528867
-0.267166
-0.261702
0.447967
0.743666
-0.520293
0.0119978
-0.285427
0.182346
0.713439
-0.895785
-0.366901
-0.0430198
0.133351
-0.936955
0.204778
-0.785909
0.0993787
0.761113
-0.860492
-0.933497
0.147588
0.719408
-0.762428
0.229273
-0.36194
-0.400296
-0.045597
0.370688
0.729906
-0.0422547
-0.000411207
0.000411207
-0.00399985
-0.0512205
-0.0290491
-0.0192325
0.0347583
-0.506256
0.3385
0.748875
-0.857926
0.109051
-0.77361
0.872989
0.783982
-0.0645741
-0.760882
-0.172615
-1.19753
0.0209431
0.0244591
-0.323909
-0.874847
-0.823909
0.416393
-0.28512
0.377383
-0.0922628
-0.5683
0.244391
0.535846
0.712371
-0.0371707
-0.0240565
0.982552
0.491215
0.190716
-0.681931
-0.387404
-0.180896
-0.00277961
0.0110786
0.75874
-0.872476
0.00666573
-0.00666573
-0.686901
0.730773
-0.0438717
-0.563273
-0.0929898
-0.708399
-0.0421988
0.679306
-0.0511677
-0.878882
-0.0806492
0.326027
-0.245378
0.860722
-0.751671
0.339163
0.253967
-0.593129
-0.116108
-0.743736
-0.116756
-0.195686
-0.122848
0.471261
-0.515398
0.141704
0.746586
-0.888289
0.493295
-0.216142
-0.0689775
-0.143529
0.0206812
0.594165
-0.089705
-0.50446
-0.284899
0.305766
-0.0208668
0.54834
0.188828
0.0402454
-0.31181
0.169375
0.142435
0.0600755
-0.080182
-0.272894
0.0834538
0.172623
-0.256077
0.913407
-0.392017
-0.171256
0.553624
0.291002
-0.558168
0.412933
-0.412933
-0.199071
-0.400983
-0.211751
-0.400983
-0.665152
-0.850158
0.180423
-0.321411
0.746467
0.0435044
0.183167
0.546739
0.10765
0.117009
0.0108453
-0.127854
0.00461607
0.778234
-1.0704
0.638513
0.0659068
0.0278108
-0.0937176
-0.745655
-0.177878
-0.530246
0.720962
-0.54395
0.0712932
-0.050612
-0.341768
-0.0810598
0.0810598
0.0430688
-0.000728893
0.137952
0.297201
-0.731507
0.201261
0.0658787
0.472079
0.527921
0.791596
0.0142155
0.0382802
-0.0524957
-0.292686
-0.586195
-0.5188
0.113712
-0.118598
0.00488567
-0.131026
-0.412326
-0.0179857
0.697291
-0.588184
-0.157471
-0.0266121
0.0131339
0.0269943
-0.256941
-0.197496
-0.180724
-0.0257849
-0.480095
0.420691
0.0594038
0.0477278
0.29397
-0.864916
-0.531793
0.701907
-0.857569
0.741461
0.459177
-0.039229
0.0682199
-0.0289909
0.121317
-0.632661
-0.00148854
0.63415
-0.892794
0.636282
-0.721752
0.0269961
0.00637441
-0.00637441
-0.299812
0.4594
-0.0307503
-0.00999269
0.0242082
0.577124
0.452169
-0.700314
0.0141107
0.00387892
-0.00429012
0.00374101
-0.00374101
-0.485225
0.674053
0.0144006
-0.0144006
-0.778097
-0.00775389
0.0105167
-0.455013
0.656274
0.512162
-0.556034
0.0685663
-0.0685663
0.0395226
-0.0708818
0.0143381
-1.07428
0.584863
-0.577488
-0.0047519
0.598014
0.00821493
-0.606229
-0.701303
0.113118
-0.31758
-0.0121286
0.329708
-0.0172839
-0.0198869
-0.60273
-0.0299309
0.0244591
0.00573619
0.000929545
-0.00220214
0.00220214
-0.516241
0.260164
-0.453105
0.133965
0.663375
-0.135192
0.00313725
-0.00313725
0.508495
0.117965
0.00836351
0.0180847
-0.00101089
0.648302
-0.530337
-0.823225
0.651969
-0.118088
0.32743
0.807008
-0.00399985
-0.109105
0.0949673
-0.659192
0.546022
-0.203863
-0.103289
-0.0246056
-0.0260899
0.0190477
0.486409
-0.0892445
-0.415215
0.716565
0.000807088
0.00648825
-0.00648825
-0.246893
-0.21904
-0.57099
0.614495
-0.145904
0.506455
-0.218365
0.821869
0.925822
0.00573619
-0.72888
0.646775
-0.0417339
-0.0387046
0.0804385
0.699696
0.0932274
-0.012988
0.0722026
-0.0592146
0.0107859
-0.0107859
-0.767001
0.023164
-0.0427994
0.060884
-0.0870936
0.0870936
0.00387892
-0.000862597
0.778009
0.032104
-0.318374
-0.0939516
-0.52024
-0.068346
-0.0684257
0.0684257
-0.0129731
0.0807751
-0.0807751
0.0287826
-0.0287826
-0.355984
-0.0744753
0.240393
0.0710187
0.0582453
-0.730409
-0.0589215
0.160829
0.0192568
-0.250823
0.0807247
-0.0807247
-0.466267
-0.0491312
0.230636
-0.0108942
0.00353405
-0.649309
0.644497
0.0764395
-0.0894126
-0.0308496
-0.0400322
-0.0122088
-0.15637
0.168579
-0.148725
-0.213214
-0.0825195
0.0825195
0.0550348
-0.0550348
-0.0287898
-0.0943243
0.123114
0.00134434
-0.188824
-0.00308564
-0.00120449
-0.263034
0.523198
-0.0260249
0.39324
0.00785384
0.00771664
-0.0532596
0.0532596
-0.72324
0.319543
-0.126732
-0.209688
-0.0223037
-0.0207563
0.0242903
0.198955
0.0403878
-0.00247818
0.00146729
0.083995
0.0297171
0.0556104
0.105218
-0.028042
0.00398551
-0.000177481
0.00671636
0.00377103
0.00652324
-0.0102943
-0.00260934
0.00866092
0.0279575
-0.0279575
0.0514463
-0.0422704
0.0422704
-0.19074
0.014433
0.0279212
-0.0771866
0.0179967
0.0768732
-0.0768732
0.258358
-0.243183
0.0944578
-0.0672812
-0.175902
-0.0158828
0.0158828
0.406778
0.251629
-0.51902
-0.0805695
-0.0380283
0.540742
-0.0295052
-0.068717
-0.476298
0.0872753
-0.153196
0.170894
-0.017698
-0.0471561
0.0471561
0.894283
-0.589889
-0.00805141
0.00544207
-0.00603383
-0.285697
-5.04174e-05
0.00457408
-0.0431577
-0.623582
0.569371
-0.648791
0.0140938
0.164928
0.0151661
0.024477
-0.15923
-0.335358
0.258171
-0.0558671
0.0270773
0.172159
0.133607
0.151005
0.266513
-0.251347
0.00470057
-0.113538
-0.221816
0.0679418
-0.0123314
0.164257
-0.13978
-0.0684755
0.15247
-0.394824
0.126496
-0.108499
0.0602031
-0.475418
0.175468
0.177563
-0.246038
0.00618275
-0.177288
0.177237
0.00385148
0.148619
-0.0278698
0.0503649
0.458131
0.0120747
0.025219
-0.000497143
0.0347942
-0.239514
-0.204183
0.588489
0.168496
0.0621404
0.0775809
-0.063889
0.101634
-0.0211954
-0.0302834
0.167258
-0.153164
0.0442668
-0.0092559
-0.10469
-0.0286685
0.0482523
0.253502
-0.0171203
0.0616018
-0.310937
-0.00545386
0.217493
0.143551
0.175992
0.0557584
0.0970892
0.0471078
0.530016
-0.0104717
0.103604
0.0426148
0.0658982
-0.108513
-0.267391
-0.19931
0.0234075
-0.221916
0.287529
)
;

boundaryField
{
    FrontBack
    {
        type            empty;
    }
    Top
    {
        type            calculated;
        value           uniform 0;
    }
    In
    {
        type            calculated;
        value           uniform -1;
    }
    Bottom
    {
        type            calculated;
        value           uniform 0;
    }
    Out
    {
        type            calculated;
        value           nonuniform List<scalar> 10(1.08889 1.03974 1.21395 0.920744 1.14964 1.07689 1.24276 1.04263 0.612004 0.612734);
    }
    circle
    {
        type            calculated;
        value           uniform 0;
    }
}


// ************************************************************************* //
