/*--------------------------------*- C++ -*----------------------------------*\
| =========                 |                                                 |
| \\      /  F ield         | OpenFOAM: The Open Source CFD Toolbox           |
|  \\    /   O peration     | Version:  2412                                  |
|   \\  /    A nd           | Website:  www.openfoam.com                      |
|    \\/     M anipulation  |                                                 |
\*---------------------------------------------------------------------------*/
FoamFile
{
    version     2.0;
    format      ascii;
    arch        "LSB;label=32;scalar=64";
    class       volScalarField;
    location    "0.4";
    object      p;
}
// * * * * * * * * * * * * * * * * * * * * * * * * * * * * * * * * * * * * * //

dimensions      [0 2 -2 0 0 0 0];

internalField   nonuniform List<scalar> 
808
(
0.314389
0.154052
0.127772
0.362313
-0.0760748
0.136371
0.152993
0.0853019
0.0859718
0.171115
0.114822
-0.00928887
0.104738
0.144053
0.168804
0.0340466
0.198505
0.0994488
0.109697
0.217699
0.116548
0.530989
0.229753
0.201395
0.633615
0.17229
0.0751804
0.0834926
0.0393287
0.0604073
0.086472
0.188688
0.0565435
0.00459483
0.141168
0.675853
0.170248
0.0803187
0.135642
0.0446599
0.139889
0.152435
0.19889
0.142797
0.204498
0.252082
0.0792119
0.113335
0.135739
0.0950527
0.144009
0.211165
0.29459
0.0288049
0.056788
0.149123
0.0293134
0.0808705
0.192709
0.209173
0.210755
0.125958
0.104019
0.140568
0.10744
0.246716
0.115607
0.0513394
0.136409
-0.195963
0.174375
-0.185292
0.126147
0.114991
0.242949
0.136744
0.179841
-0.0325616
0.157136
0.382028
0.185963
0.0841918
0.110343
0.422216
0.169365
0.166319
-0.375405
0.0314832
0.237835
0.167137
0.238323
0.122902
0.412393
0.449751
0.20122
0.179612
0.0520736
0.244141
0.137683
0.153284
0.143633
0.177862
0.250496
0.190125
0.210564
0.337619
0.214669
0.0196571
0.174693
0.133662
0.202982
0.572142
0.165019
0.152513
0.0330541
0.49636
0.222275
-0.0769717
0.0952515
0.271774
0.218646
0.192842
0.205884
0.260456
0.308757
0.0894323
0.236567
0.126933
0.201196
0.315967
0.18749
0.0748926
0.179413
0.333593
0.107571
0.209556
0.126003
0.0172794
0.14382
0.213109
0.107101
0.211147
0.111077
0.15049
0.130114
0.119977
0.275199
0.463084
0.118248
0.0448253
0.163185
0.513279
0.200301
0.621437
0.273866
0.146343
0.15414
0.191655
0.128142
0.130807
0.0523087
0.109635
0.105273
0.206497
0.246594
0.113498
0.169427
0.147057
0.162208
0.129554
0.237126
0.365267
0.125339
0.186187
0.143848
0.254559
0.345289
0.112467
0.108695
-0.317428
0.096812
0.0734746
0.225564
0.517691
0.219577
0.331103
0.174945
0.175289
0.119007
0.175186
0.26468
0.202101
0.104564
0.228247
0.25427
0.194547
0.112562
0.120776
0.014174
0.281949
0.289447
0.0731622
0.0789164
-0.210687
0.58356
-0.0188415
0.152214
0.0690911
0.0851404
0.14143
0.0318535
-0.596713
0.18807
0.131957
0.0286354
0.103339
-0.133051
-0.0112933
0.0154721
0.101738
0.0246524
-0.0576084
0.0974721
0.0891711
0.00626958
0.0952677
0.401021
0.234866
0.079682
0.0885996
0.36695
0.079482
0.0881649
0.0516064
0.218008
0.049389
0.0584836
0.0221448
0.00545085
0.0437667
0.0181723
0.000380313
0.00220516
0.055083
0.00099372
-0.00861606
-0.00194515
0.0190908
0.00498053
0.113056
-0.0865454
-0.00281981
0.0321723
0.199054
0.0320675
0.164972
0.0923456
0.0155171
0.093993
0.290642
0.0688851
0.0401367
0.0441521
0.139826
0.0595743
0.104776
0.0474687
0.12175
0.0349692
0.0994938
0.0577901
-0.523942
0.523683
0.0562499
0.150721
0.0426747
0.0279763
0.0540537
0.193808
0.381943
0.0953364
0.0805825
0.0611928
0.371469
0.173307
0.0690175
0.124814
0.131806
0.055943
0.121661
0.0998972
0.0794351
0.0382622
0.0490596
0.0719403
0.0731676
0.0756135
0.227373
0.0813097
0.0744319
0.0366582
0.0654426
0.0548756
0.0592135
-0.777633
0.143327
0.0939332
0.155592
0.10707
0.203863
0.0664492
0.0538277
0.204004
0.419598
0.356928
0.166174
0.148539
0.0781239
0.0456435
-0.144535
0.094256
0.00986794
0.108101
0.0621673
0.0470107
0.0897131
0.0900141
0.166352
0.0635317
0.25333
0.161624
0.0664271
0.148527
0.13979
0.177293
0.491472
0.0706446
0.136553
0.638241
0.114246
0.0492627
0.0709243
0.166752
0.185232
0.104886
0.0900578
0.141838
0.122679
0.15999
-0.00687362
0.105806
0.329432
0.180669
0.173708
-0.0431264
0.253357
0.235692
0.115329
0.0982726
0.179236
0.153967
0.16003
0.0974406
0.111834
0.0199858
-0.75116
0.124723
0.125273
0.121249
0.203238
0.132825
0.023721
0.309889
0.169284
0.106764
0.174822
0.0914398
0.124658
0.225353
0.156517
-0.278184
0.168646
0.131088
0.106616
0.166527
0.15574
0.167599
-0.238189
0.167665
0.155169
0.155721
0.141375
0.167339
0.149339
0.159707
0.171527
0.176502
0.186519
0.139545
0.0853127
0.217254
0.183783
0.195415
0.0583178
0.175302
0.158424
0.515617
0.195563
0.00528275
0.182177
0.149734
0.0972939
0.0878951
0.166986
0.21157
0.177082
0.201683
0.16545
-0.00923519
0.0205083
0.0238805
0.00135839
0.0342429
0.264408
0.166198
0.0812623
-0.00175973
0.154585
0.176347
0.167226
-0.45792
0.156602
0.116675
0.0327699
0.192031
0.258033
0.169014
0.0537886
0.160436
0.118872
0.182715
0.0867093
0.243939
-0.0850473
-0.631868
0.20262
0.167913
0.17745
0.254734
0.489645
0.152379
0.313367
0.159065
0.120967
0.633506
0.0351927
0.199146
0.195863
0.145436
0.173918
0.2254
0.264475
0.120051
0.204793
0.130846
-0.242434
0.0405421
0.12098
0.160593
0.110626
0.241702
0.209319
0.153946
0.27376
0.144102
0.123535
0.192764
-0.143954
0.156582
0.170304
0.158099
0.241622
0.231087
0.139934
0.0489573
-0.779596
0.539197
0.201848
0.304824
0.188553
0.0623545
0.283066
0.103209
0.253891
-0.281438
0.19428
0.914472
0.184321
-0.462136
0.174087
0.172329
0.17437
-0.646592
0.313493
-0.00987671
0.0188182
0.202118
-0.46258
0.176116
0.186804
0.160448
0.0789048
0.286398
-0.811448
-0.381584
-0.635383
0.190166
0.0428711
0.141581
0.267924
0.251226
0.162623
0.163188
0.560711
0.136545
0.0389064
-0.68019
-0.772014
0.0126199
0.14724
-0.37289
0.130249
0.15596
0.157919
0.194499
0.00975273
0.0797474
0.075713
0.153393
0.0423202
0.18747
0.229607
0.234583
0.183835
-0.419918
0.289483
0.181806
0.248349
0.160412
-0.189262
-0.08014
0.2074
0.198584
0.202314
0.274628
0.0038381
0.223057
-0.13382
0.292468
0.122357
0.186177
0.0943782
0.125362
-0.467893
0.0511688
0.00924373
0.111906
0.266643
0.162097
0.00442213
-0.566409
-0.744146
0.0242718
-0.660032
-0.683134
0.0987455
-0.0836219
0.0786557
0.00787025
0.101396
0.0833558
0.22086
0.229805
0.252076
0.122222
0.14277
-0.604001
0.0690559
0.320261
0.104493
-0.399743
-0.796231
0.193148
0.310583
0.553372
0.0219673
0.0183555
0.0304535
-0.379401
0.703948
0.175264
0.0783292
0.0966635
-0.0682127
0.198108
0.500014
-0.553771
0.183884
0.152748
0.0257269
0.0474823
-0.678916
0.144857
0.295224
0.281041
-0.336161
0.160756
-0.464986
0.133349
-0.051186
-0.381421
0.547809
0.626547
0.250479
0.18951
0.192265
0.204336
0.180941
0.438756
0.171218
0.000497258
0.167291
-0.744056
0.219724
-0.152896
0.0404173
-0.454955
0.0486992
-0.00380285
-0.00261696
-0.301638
0.507606
0.725104
0.200178
-0.1833
0.181044
0.211474
-0.133589
-0.00155719
0.162482
-0.120313
0.808262
-0.418347
0.796129
-0.554125
0.475139
0.07283
0.231641
0.265022
-0.752935
0.270061
0.115004
-0.177978
-0.276554
0.93071
0.226767
0.316407
0.210746
0.705508
0.247843
0.288553
0.0700352
0.217836
0.0233145
0.116383
0.579443
0.0210999
0.248943
0.0547368
0.133418
-0.0323777
0.235693
0.100741
0.272187
-0.183277
-0.176014
-0.444461
0.177555
0.277416
0.164327
0.318176
0.213571
-0.235377
-0.433975
0.154674
0.181538
-0.622717
-0.731399
0.209683
0.308472
0.293528
0.708615
-0.003873
0.250372
-0.427876
-0.290292
0.0244317
0.153927
0.824826
-0.569539
0.429995
0.180596
-0.619042
0.307081
-0.07905
0.471571
0.105325
0.153714
-0.168735
-0.0850999
0.251275
0.862092
0.435623
0.811548
0.292548
-0.0156576
-0.587791
0.226862
0.338041
0.219603
0.367507
0.177671
0.654775
0.261805
0.16454
-0.183375
0.107206
0.277091
0.935909
0.517951
0.693538
0.620175
-0.291449
0.264258
0.15108
0.256672
0.222097
-0.521461
0.148228
0.630393
0.238678
0.0661899
0.176452
0.397083
-0.296574
-0.490244
0.200054
-0.0122727
0.294448
0.272802
-0.343027
0.174751
-0.602592
-0.165757
0.266678
0.280765
0.714969
-0.00811069
0.0213327
0.887905
-0.0819206
0.386984
-0.167643
0.444171
0.244078
0.221463
-0.496932
0.483995
-0.339339
-0.343591
0.260831
-0.291593
0.194894
-0.0996559
-0.122873
0.0776329
0.652161
0.825569
0.0228372
0.34308
0.252672
0.878548
0.16951
-0.250695
0.180045
0.807717
0.408712
-0.297903
0.188176
0.552969
-0.0620818
0.107721
0.390749
0.368107
0.463745
-0.0837784
0.142762
0.742019
)
;

boundaryField
{
    FrontBack
    {
        type            empty;
    }
    Top
    {
        type            zeroGradient;
    }
    In
    {
        type            zeroGradient;
    }
    Bottom
    {
        type            zeroGradient;
    }
    Out
    {
        type            fixedValue;
        value           uniform 0;
    }
    circle
    {
        type            zeroGradient;
    }
}


// ************************************************************************* //
