/*--------------------------------*- C++ -*----------------------------------*\
| =========                 |                                                 |
| \\      /  F ield         | OpenFOAM: The Open Source CFD Toolbox           |
|  \\    /   O peration     | Version:  2412                                  |
|   \\  /    A nd           | Website:  www.openfoam.com                      |
|    \\/     M anipulation  |                                                 |
\*---------------------------------------------------------------------------*/
FoamFile
{
    version     2.0;
    format      ascii;
    arch        "LSB;label=32;scalar=64";
    class       surfaceScalarField;
    location    "0.4";
    object      phi;
}
// * * * * * * * * * * * * * * * * * * * * * * * * * * * * * * * * * * * * * //

dimensions      [0 3 -1 0 0 0 0];

oriented        oriented;

internalField   nonuniform List<scalar> 
1171
(
-0.909976
0.909976
0.893271
-1.1708
0.277526
-0.198185
-0.671426
0.869611
0.0900242
-0.137774
-0.208776
0.34655
-0.893271
0.0515106
0.841761
0.807706
-0.159851
-0.647855
0.820534
-1.00121
0.18068
-0.262551
-0.107614
0.370165
-0.0519253
0.554228
-0.502302
-0.503099
0.809236
-0.306137
-0.400325
0.972256
-0.151722
0.337145
0.00661527
-0.34376
0.973551
-0.00129559
0.344332
-0.00718678
0.985614
-0.0120625
0.598416
-0.796601
-0.734203
0.541556
0.192647
0.20813
-0.711229
0.567608
-0.929335
0.361728
-1.07616
0.660558
0.415604
-0.599911
0.547985
0.0291178
-0.251155
0.222037
-0.0371797
-0.450262
0.487441
0.401767
-0.509381
-0.856194
0.879146
-0.022952
0.994869
-0.0092547
0.860514
-1.07989
0.219377
0.997289
-0.0024199
-0.677736
-0.056467
1.18761
-0.787886
-0.399719
0.141094
-0.121535
-0.286537
0.408072
-0.26924
0.192916
0.0763243
-0.6798
-0.490997
0.925299
-0.0647849
0.0108909
0.797266
-0.808157
0.532437
0.655168
0.432693
-0.0356896
0.437457
-0.769143
-0.0891878
0.858331
0.499893
0.249581
-0.749474
0.0260471
0.461472
-0.48752
-0.510339
-0.565823
-0.399277
-0.680614
-0.0323994
0.25917
-0.226771
-0.897333
0.0164091
0.880924
0.273707
0.0964578
0.761722
0.0459845
-0.553851
-0.0460597
0.023947
-0.79309
0.104718
0.831194
-0.935912
-0.33695
-0.0451424
0.382092
-0.642808
-0.254525
-0.631393
0.736111
0.615872
0.193364
-0.537992
0.912867
-0.771968
-0.140899
0.242065
0.0886127
-0.330678
-0.414551
-0.0948296
-0.23469
0.850562
0.0695871
0.300824
-0.370412
-0.473514
0.973407
0.773168
-0.862356
0.258554
0.03604
-0.294594
1.06506
-1.06506
-0.779651
0.123813
-0.332589
-0.845646
0.856537
-0.120291
-0.131071
0.251362
0.832034
-0.0347672
0.980933
-0.731352
0.165273
-0.291986
0.126713
0.840596
-0.078874
-0.579735
-0.058613
0.638348
0.11658
-0.220652
0.104073
0.750195
-0.910047
-0.432236
0.31247
0.119766
0.476421
-0.513601
1.10755
-0.431052
-0.676499
0.708274
-0.676269
0.0104948
0.665774
0.0911218
0.580574
0.0723706
-0.652945
0.209739
-0.0859258
-0.4844
0.14745
0.0916543
-0.871721
0.780067
-0.443646
-0.731391
0.0536554
0.412765
0.0246921
0.279825
-0.846144
0.566319
0.42963
0.57037
0.576032
-0.552085
-0.328141
0.0662088
0.261932
0.840523
0.224541
-0.512514
0.538561
0.126228
0.801706
0.0357309
-0.615466
-0.808024
0.899678
0.521961
0.0605371
0.286136
-0.346673
-0.132532
0.390953
0.0705194
0.893213
-0.835773
-0.0574397
0.602447
0.31042
-0.446951
0.556616
-0.496079
0.403118
0.164489
-0.0403611
-0.578261
-0.132908
0.711169
-0.137413
-0.927651
-0.600155
0.347292
0.252863
0.633789
-0.598058
0.226259
0.935364
0.0455688
-0.808024
0.447277
-0.205211
0.773168
0.869598
-0.869598
0.818066
-0.807455
-0.0106112
-0.439289
0.868919
-0.146419
-0.337981
0.753528
-0.694196
-0.0593321
-0.716323
0.138062
0.140669
-0.69452
0.862356
-0.994888
-0.275258
0.181515
0.0937427
0.133585
-0.949437
0.815852
0.463913
-0.0312203
-0.264376
0.578479
-0.314103
-0.878809
1.01239
-0.138179
0.646906
-0.739301
0.0923951
0.921275
-0.545964
-0.375311
0.829237
-0.0739102
0.0411112
0.133152
-0.174263
-0.777451
-0.741038
0.0696119
-0.845646
0.509762
-0.554905
0.0846099
0.631364
-0.715974
0.818635
0.0913405
0.450613
0.549387
-0.037739
-0.542508
0.580247
0.900501
-0.00728786
-0.829237
0.899678
0.181376
-0.432531
0.0884881
0.00270443
-0.0911925
0.563771
-0.450577
-0.113194
0.841761
-7.83079e-05
-0.0941318
0.387031
0.17674
0.0580975
-0.00857077
-0.0495268
-0.0402216
0.0813328
0.237285
-0.201245
-1.00778
-0.0140721
-0.108099
-0.037973
0.0727666
0.738716
0.724226
-0.153856
0.719622
-0.635012
-0.214226
0.379499
0.833241
0.00852016
0.229101
-1.03656
-0.994888
0.298399
0.856537
-0.218365
0.0872942
-0.724644
0.909674
-0.185029
0.386488
-0.00439527
0.706157
0.323731
0.288559
0.0557728
-0.689278
0.689278
0.212531
0.645799
-0.0613738
0.362198
0.346698
-0.0658635
0.154352
0.423709
0.0402041
-0.878809
0.548349
0.205178
0.282813
-0.149662
-0.833241
0.185362
0.724312
0.00735671
-0.775518
0.768161
0.715351
-0.818431
0.10308
-0.818635
-0.179176
0.201047
-0.0218708
0.0706647
-0.209343
-0.0605718
0.269915
0.0413432
0.0167543
0.683984
-0.676627
0.806237
0.0633736
-0.297163
-0.473336
0.770499
0.0597096
-0.0597096
0.247724
0.458864
0.6047
-1.06356
-0.180038
-0.542216
0.722253
0.0661603
0.185201
0.374732
-0.258153
0.960228
-0.501364
0.665533
0.986532
-0.381832
0.228313
1.01239
0.860673
0.212856
0.666291
-0.927651
0.310722
-0.259195
0.240791
0.0184044
0.782539
-0.010555
-0.771984
-0.84861
0.84619
0.560711
-0.84861
-0.860673
0.84619
-0.0360935
0.809692
-0.00345488
-0.840523
0.760633
0.0798904
0.502779
0.54127
-1.04405
0.459852
0.500376
0.54098
0.464266
-1.00525
0.493386
0.493146
0.760633
-0.492686
-0.43043
-0.565445
-0.509123
-0.107937
0.00888776
-0.00888776
0.490845
0.51653
-1.02565
0.537169
-0.251033
-0.900673
0.354709
-0.641991
0.387466
-0.0146117
-0.805089
0.819701
0.45985
-0.0165494
0.799089
-0.928556
-0.849429
0.0502236
0.799206
0.642895
-0.536494
-0.106401
0.660096
-0.72488
0.873613
-0.816805
-0.0568081
-0.0189128
-0.816861
-0.104778
0.702656
-0.597877
-0.858272
0.839359
-0.771869
0.732932
0.0389374
-0.832806
0.0430108
0.789795
0.0319375
0.0277721
0.444315
0.0549429
-0.84976
0.794817
-0.61148
0.573741
0.911006
0.085647
-0.996653
0.0615766
-0.0635203
0.325452
-0.347643
0.0556567
0.844165
-0.858776
-0.769433
-0.826863
0.0100022
-0.151555
-0.832951
0.0161458
0.679474
0.0401477
0.0365101
0.606385
-0.787676
0.830687
0.676499
-0.821639
-0.772625
0.0370676
-0.0331111
0.812297
-0.779186
-0.0132498
-0.802544
0.571194
0.144157
-0.0246204
0.823709
0.889582
0.859015
-0.842869
0.0836693
-0.0836693
-0.126569
-0.577418
0.040924
0.244184
0.0542154
0.288481
0.810459
0.0103587
0.0309845
0.658647
0.341353
0.774344
-0.6798
-0.722832
-0.789741
-0.823238
0.823238
-0.177444
-0.155145
0.609999
-0.828407
0.218408
-0.473248
-0.532294
0.256196
-0.936811
-0.843434
0.786626
-0.797712
0.807715
0.645609
0.149302
-0.794911
-0.750803
-0.144128
0.736424
-0.592296
0.032975
-0.00159922
-0.00012044
0.00171966
-0.473624
-0.103794
0.866196
0.64716
-0.205949
-0.441211
0.540759
0.663241
-0.45071
0.00724872
-0.276489
0.0200813
0.692745
-0.712826
-0.291202
-0.0729186
0.0591853
-0.881875
0.109891
-0.679105
0.0522197
0.644502
-0.696722
-0.756711
0.0776059
0.583104
-0.656023
0.120475
-0.329818
-0.746569
-0.00423412
0.35858
0.579829
-0.0232125
-0.000175682
0.000175682
0.000316991
-0.0608708
-0.198325
0.116827
-0.106469
-0.706421
0.289818
0.68853
-0.690486
0.00195673
-0.57575
0.62797
0.647073
-0.063969
-0.64184
-0.114871
-1.03869
0.00962173
0.0740476
-0.68634
-0.746619
-0.789387
0.389668
-0.350153
0.373802
-0.0236495
-0.63883
-0.0475106
0.518669
0.748671
-0.174637
0.136664
0.886109
0.443386
0.116816
-0.560202
-0.666315
0.0274859
0.0155273
-0.0171266
0.637313
-0.770221
-0.0126394
0.0126394
-0.598787
0.647161
-0.0483739
-0.629805
-0.129292
-0.632521
0.0289912
0.551256
-0.113016
-0.776649
-0.537655
0.559227
-0.0215716
0.627313
-0.625356
0.331571
0.220016
-0.551587
-0.109305
-0.608153
-0.0885688
-0.155401
-0.508664
0.397323
-0.492152
0.12306
0.69127
-0.81433
0.708274
-0.284488
-0.0656649
0.0624754
-0.571139
0.568481
-0.0443657
-0.524115
-0.30147
0.30609
-0.00462061
0.431162
0.106007
0.0389207
-0.286789
0.155201
0.131588
0.39634
0.0509371
-0.269136
-0.458815
0.495196
-0.0363806
0.775424
-0.60267
-0.0271353
0.491518
0.276372
-0.482321
0.732222
-0.732222
-0.264277
-0.733455
-0.263388
-0.733455
-0.606985
-0.89074
0.196545
-0.561746
0.756978
0.013576
0.101989
0.47784
0.0933675
0.180915
-0.0323174
-0.148598
-0.00251942
0.594719
-0.875731
0.402394
0.0300854
-0.195882
0.165797
-0.656265
-0.141155
-0.451312
0.568129
-0.505093
-0.388712
-0.182427
-0.240378
-0.0843538
0.0843538
0.0933369
0.10771
0.190537
0.424739
-0.533151
0.081839
0.270876
0.47051
0.52949
0.612662
-0.0776568
-0.0462789
0.123936
-0.24817
-0.528479
-0.504696
0.113128
-0.118566
0.00543782
-0.101467
-0.382347
-0.0369116
0.588168
-0.521502
-0.134763
-0.3001
0.21695
0.113292
-0.682523
-0.209762
-0.26754
0.0662952
-0.393769
0.266907
0.126862
-0.0839166
0.30561
-0.871433
-0.460298
0.585648
-0.764036
0.654731
0.298678
-0.170799
0.216057
-0.0452584
0.00261379
-0.601365
0.0545704
0.546795
-0.945216
0.541502
-0.668071
-0.0891047
0.0548224
-0.0548224
-0.27954
0.307093
0.0183595
-0.0311449
-0.0465119
0.498749
0.66117
-0.71861
-0.0284405
-0.00200046
0.00182478
-0.0146231
0.0146231
-0.371318
0.477324
0.0154831
-0.0154831
-0.739167
-0.0846017
0.116539
-0.429658
0.511497
0.439951
-0.488325
0.0967608
-0.0967608
-0.00210285
0.156454
-0.0823386
-0.882295
0.506984
-0.394967
0.0277721
0.53503
0.0208184
-0.555849
-0.651298
0.129796
-0.331076
0.00561896
0.325457
-0.159632
-0.0150044
-0.593689
-0.00767653
0.0740476
-0.0268561
0.0142167
0.0414299
-0.0414299
-0.472406
0.436025
-0.426864
0.1724
0.601944
-0.0823622
5.52425e-05
-5.52422e-05
0.481005
-0.0761379
-0.00488723
0.0192253
0.013149
0.602683
-0.67882
-0.588262
0.561127
-0.0878742
0.322717
0.716745
0.000316992
-0.226028
0.0763669
-0.695627
0.49745
-0.333982
-0.116268
-0.022495
-0.00862613
0.0705483
0.386902
-0.118324
-0.405791
0.619964
0.0057353
-0.00499853
0.00499853
-0.266128
-0.0476666
-0.563235
0.576811
-0.23137
0.460155
-0.141315
0.739731
0.672325
-0.0268561
-0.61044
0.578193
0.275082
-0.249397
-0.025685
0.47721
0.0897832
-0.0206323
0.17725
-0.156618
0.0620623
-0.0620623
-0.796571
0.0130915
-0.104611
0.123836
-0.0936882
0.0936882
-0.00200046
0.000372234
0.678097
0.0462147
-0.315043
-0.0673041
-0.489342
-0.0250181
-0.0910979
0.0910979
0.121833
0.0998942
-0.0998942
0.0732026
-0.0732026
-0.33967
-0.107281
0.235613
0.0768566
0.0284104
-0.756074
-0.197617
0.153566
0.0278106
-0.273294
0.0913484
-0.0913484
-0.438882
-0.0532702
0.22233
-0.000292811
0.0145739
-0.526227
0.56232
-0.0920219
0.213855
-0.0161391
0.172594
-0.00313335
-0.179615
0.182749
-0.083574
-0.246244
-0.0958683
0.0958683
0.0571219
-0.0571219
-0.0289236
-0.0926357
0.121559
0.209763
-0.174757
0.0267208
-0.024896
-0.10898
0.545005
-0.0272319
0.402517
-0.0840647
0.034538
-0.0886006
0.0886006
-0.613501
0.320501
-0.0921876
-0.210989
-0.00966323
-0.135657
0.150231
0.140531
0.129384
0.107817
-0.0946684
0.0809297
0.0321981
0.060637
0.0929285
-0.0502627
0.186926
0.00764086
-0.156731
-0.119189
0.0548507
0.0643384
0.00299806
-0.0783294
0.0294719
-0.0294719
0.0415936
-0.0428595
0.0428595
-0.192441
-0.122193
-0.00905376
-0.0954626
0.0111404
0.0804954
-0.0804954
0.267394
-0.273351
0.189777
-0.0377427
-0.235608
-0.0158774
0.0158774
0.373763
0.29201
-0.553896
-0.0826987
-0.0358669
0.546164
0.193624
-0.0966449
-0.338907
0.0613503
-0.150863
0.17881
-0.027947
-0.0482973
0.0482973
0.778095
-0.554316
0.0347557
-0.0317576
-0.00933441
-0.2963
-0.00854584
-0.00218014
-0.110323
-0.566978
0.542612
-0.582265
0.00477043
0.0798038
0.00249733
0.0153979
-0.160197
-0.323725
0.228263
-0.0565736
0.02765
0.143571
0.162519
0.263463
0.278307
-0.275809
-0.104972
-0.152729
-0.20537
0.0701681
-0.00953117
0.201517
-0.186119
-0.0738722
0.154802
-0.362249
0.194361
-0.18322
0.0867804
-0.492571
0.176629
0.167933
-0.241805
0.029488
-0.192782
0.184236
0.010853
0.143949
-0.0273764
0.0266778
0.454327
0.0135945
-0.152893
0.119412
0.11521
-0.233317
-0.203959
0.559761
0.15646
0.0658696
0.0708033
-0.0472426
-0.190566
0.164881
-0.0313604
0.171737
-0.166966
-0.0823444
0.00985965
-0.135506
-0.0488331
0.104582
0.252215
-0.0402291
-0.0179725
-0.250639
-0.137198
0.22359
0.184712
0.13579
0.0182964
0.0943275
0.0541371
0.444611
0.0719792
0.110217
0.0408916
0.0632433
-0.104135
-0.261886
-0.203008
-0.0326002
-0.240356
0.28324
)
;

boundaryField
{
    FrontBack
    {
        type            empty;
    }
    Top
    {
        type            calculated;
        value           uniform 0;
    }
    In
    {
        type            calculated;
        value           uniform -1;
    }
    Bottom
    {
        type            calculated;
        value           uniform 0;
    }
    Out
    {
        type            calculated;
        value           nonuniform List<scalar> 10(1.00083 0.995465 0.995876 0.993762 1.00554 1.00227 1.00737 1.00554 0.9965 0.996843);
    }
    circle
    {
        type            calculated;
        value           uniform 0;
    }
}


// ************************************************************************* //
