/*--------------------------------*- C++ -*----------------------------------*\
| =========                 |                                                 |
| \\      /  F ield         | OpenFOAM: The Open Source CFD Toolbox           |
|  \\    /   O peration     | Version:  2412                                  |
|   \\  /    A nd           | Website:  www.openfoam.com                      |
|    \\/     M anipulation  |                                                 |
\*---------------------------------------------------------------------------*/
FoamFile
{
    version     2.0;
    format      ascii;
    arch        "LSB;label=32;scalar=64";
    class       volScalarField;
    location    "246";
    object      p;
}
// * * * * * * * * * * * * * * * * * * * * * * * * * * * * * * * * * * * * * //

dimensions      [0 2 -2 0 0 0 0];

internalField   nonuniform List<scalar> 
808
(
-0.03266655453607759
0.04367283082943431
-0.01119655615144369
0.03831336543959729
-0.2940357149329602
-0.05580051339935441
-0.01576636411361103
-0.0240558851617942
-0.1932204314969018
-0.08202035268724704
-0.0105266808602643
-0.2498115152692594
-0.030689708821667
-0.01421879345952543
-0.1242725057276888
-0.01420348224439262
-0.1408859611554084
-0.01375656453998669
-0.01297408533706056
-0.05424394367200857
-0.008154320003549511
0.1162362303296747
-0.06393332085034599
-0.06986854726283973
0.1737771467813006
-0.1006834875300462
-0.1493826898622797
-0.02049906745604656
-0.01765843875680966
-0.02558937830204969
-0.02040894098658033
-0.05692906251518076
-0.02277423255909741
-0.01697501215978189
-0.09757139203669278
0.3452338926949873
-0.04016623187414545
-0.01646103054510286
-0.02233780818107768
-0.02648877719071667
-0.08843074355922123
-0.1239744882821462
-0.0531708447188952
-0.02146567024228006
-0.05511196795153742
-0.04303543858029224
-0.01188235999846998
-0.1809061134250729
-0.02631973274016572
-0.2003242010463656
-0.0172722966743073
-0.06540710897792613
-0.06218804913450788
-0.01500566522398624
-0.196861585925685
-0.0275478019870367
-0.01088318574294303
-0.01525368970680582
-0.09809324337959335
-0.03873158386410556
-0.1110117866510761
-0.1231855141926476
-0.01462472530063992
-0.126263926294389
-0.01756492670172372
-0.05294785316582307
-0.1600778523892495
-0.03536953961959297
-0.01547260149391735
-0.4344423131632759
-0.02599426995843741
-0.2959477631655686
-0.02119661960264676
-0.02112271910139316
-0.06177676892787196
-0.0183014059581744
-0.04142516484763576
-0.368554340804376
-0.03666136006432442
0.03780230124643318
-0.09285565233816997
-0.01669507216814871
0.05731365865466433
0.04663313441102528
-0.01765039590302228
-0.05100649395611193
-0.5346166171978686
-0.2303088663327711
-0.05077063481779798
-0.1142451897977428
-0.05500524954136615
-0.1298691042055426
0.03767785442152501
-0.02719681493135995
-0.06331336493224649
-0.1174178602478812
-0.0381917315897192
-0.05237479318574345
-0.1136984950301145
-0.1362994352683772
-0.0532337419197766
-0.04615638293745251
-0.05301303744455222
-0.04368922761286324
-0.05663719050950862
-0.07608219033270203
-0.04018500675643506
-0.01077098325336164
-0.03933297408843307
-0.1210352236017254
-0.04937647873690337
0.08066762482137024
-0.04151736596327103
-0.007875595132418839
-0.02752456103433611
0.1811719115157715
-0.03762653086083188
-0.2634331598697152
-0.02080684350874966
-0.05208687589341549
-0.04114357147544347
-0.04991533650437208
0.01449604578772714
-0.04707501346485578
-0.03734006790343975
-0.2214670548706245
-0.03930279445908925
-0.004348824868988723
-0.07383029949972045
-0.0703143210792624
-0.1455865190736109
-0.02119862774411123
-0.07361697839648365
-0.04499431170144247
-0.02308330423518844
-0.01452434204779982
-0.006080190507001517
-0.007459736789847825
-0.05150816765773954
-0.04839504661596683
-0.2191572168772267
-0.05478913105230847
-0.008115562789467245
-0.02164693583628114
-0.1502278526351454
-0.002496717979769148
-0.07460058308643279
-0.02022960812161587
-0.0001128330107375372
-0.01083769225281796
-0.03261309480939142
0.09243440249245272
-0.03742521448020252
0.2511290688353821
-0.2641306745013186
-0.1348591105555072
-0.03814416387688318
-0.09094124085670439
-0.009253724711710511
-0.1155761376988533
-0.1669603396695045
-0.2188308794933046
-0.1744142077137733
0.05744041113622195
-0.06437112496523928
-0.02066020656755922
-0.06568465896239914
-0.1661858125048566
-0.02281792739808379
-0.01859509630782054
-0.05043407008140304
-0.02149107653329304
-0.007752232088045709
-0.1047173251141821
-0.02367469753400189
-0.04344608349628063
-0.07164726464891462
-0.1579635428149191
-0.03290481481878998
-0.3818820008341855
-0.01795438190653214
-0.2292082116961071
-0.04294972642675639
0.03374928713941538
-0.1068770190370043
-0.01720638652881126
-0.0437404859240058
-0.1032347102961646
-0.01785468838323129
-0.09410939716407866
-0.2054371419987142
-0.07044567018784763
-0.02419801637457555
-0.04630354025175467
-0.04149809948264455
-0.2026403922202059
-0.02247766473206958
-0.01938054267041743
-0.01122657074382528
-0.05814135757329692
-0.04909084879250121
-0.02261154078219051
-0.02060962120296635
-0.2319902480241135
0.1264937710980225
-0.2091736801704382
-0.1854037071103535
-0.01173247502864374
-0.01118000026039671
-0.06620717256871922
-0.01059066490057961
-0.4898225926557653
-0.1234658448713033
-0.01970209942549257
9.873555898957558e-06
-0.02355015147676943
-0.2749028244746886
-0.2819514309564507
-0.007421097783813814
-0.0173787337363808
-0.0012376122527713
-0.3532080652416318
-0.02859302204086634
-0.02937692836919697
-0.01265914372005151
-0.01939922051341933
0.04792799021375189
-0.1211626702558486
-0.01444337146268005
-0.02096843124628446
-0.04616110973613485
-0.01840577376618105
-0.01639767772619874
-0.02356990798410075
-0.06840987071230253
-0.01092060685596953
-0.01890627268027954
-0.00892924574381831
-0.001114836667656102
-0.02931825229301139
-0.002130165986470034
-0.001934578904496219
-0.00561057466249299
-0.02550261039698907
-0.008043441020992165
0.001530309302628648
-0.00423098524525487
0.001419273986071476
0.002388011487413432
-0.009051116908658622
-0.1305516821944421
-0.002899446542800082
-0.0005790166040544267
-0.04742333377031023
-0.02147798498620905
-0.02344324341533451
-0.0140946473675474
-0.006254779272519135
-0.02112401557587653
-0.04097209715616104
-0.01502469928890273
-0.01278191735159896
-0.01124862945644285
0.008083801164736389
-0.009686761124794231
-0.01275061235442801
-0.01155626573696603
-0.01008120678557374
-0.01036204510254435
-0.0117307300683953
-0.01352956859233667
-0.2904458535361645
0.05816401716133938
-0.01565697332858536
-0.0146505856163879
-0.01243429825539403
-0.01193841614932225
-0.008346492476383326
-0.09772175821105837
0.01402043064690532
-0.01414722260990254
-0.01354262615013659
-0.01048656718105464
-0.05023434985948815
-0.008961530712152881
-0.01361361458107088
-0.01041539798907736
-0.00151705793372405
-0.01186296406395289
-0.01188434231481648
-0.02414477373941794
-0.01530096466374883
-0.0122840094684717
-0.01358502190437602
-0.008879814472607642
-0.01237171613893601
-0.01116107471813483
-0.06056898055928862
-0.01370384538667344
-0.01198223775593548
-0.009235361556237895
-0.01540587912036239
-0.01376844291484081
-0.01562579688282072
-1.360180248103408
-0.1012469133807743
-0.01229678125154227
0.02641289418033342
-0.1596911848147133
-0.0925730026515774
-0.01246653492546219
-0.01422718901551382
-0.2295533680377104
-0.0274770842817743
-0.01691435797742872
-0.01257351791200233
-0.0205253331734978
-0.01011167080501314
-0.03083712619047917
-0.4054937766557877
-0.01217766330275116
-0.01408633955279939
-0.004368780790930087
-0.0112863010039654
-0.01041445761340287
-0.01378046748158279
-0.006394744515023289
-0.02745712498011668
-0.01194298940743243
-0.1761235646590667
0.02087587541751791
-0.007222533343141401
0.004443219394335381
0.01241375976810164
-0.04938588003085749
0.02685942740068585
-0.01329054830520774
-0.1312631461447144
0.2831483002666253
-0.008107394801136553
-0.01378063647594683
-0.007861664565732439
-0.03286011618012052
-0.126849842641286
-0.01255774766943802
-0.0118509809095483
-0.01743513710448959
-0.01347378113308221
-0.04184283513897843
-0.2221090536564913
-0.008840981071310903
-0.0444288944920611
-0.03813217096963443
-0.1823890238955372
-0.1505977640992078
-0.1463696307182025
-0.2212408501647242
-0.002832137839302046
-0.02057335302542241
-0.01520186835972709
-0.01389400021715443
-0.0339779685763165
-0.02456818418590974
-0.01390115441118265
-0.01484124758784326
-1.063972843881621
-0.004060052774499193
-0.01311976374804195
-0.01798991885423278
-0.02361545236480813
0.002893804888309642
-0.01482059058036333
-0.02457718535591649
-0.147590074488357
-0.01361741573457804
-0.02100987003088108
-0.01458389872290201
-0.001177338924384689
-0.1780566949534413
-0.01234968965107064
-0.1567896048762098
-0.01538528358435542
0.002274328489118916
-0.01400975415497814
-0.02445318124924321
-0.01625200880119125
0.006948928508582564
-0.2640097370614629
-0.02690876149345197
-0.01683145096266518
-0.01323302676866266
-0.01112446649171952
-0.02902427599304815
-0.0136426021733358
-0.02118641064507718
-0.02035221830366609
0.01139171118137583
-0.09644592714781679
-0.02096229199527714
0.009652152761584442
-0.06052501657314914
0.1865910809180649
-0.1077039168356363
-0.3136355681127717
-0.02995961267374748
-0.02602683599134548
0.1521965353208696
0.08593158900873288
-0.003960363936807993
0.05333026458114516
-0.01494147680850213
-0.01315582112586303
0.002798746253700106
0.0067194337332884
-0.0640597124484818
-0.0047344374966356
-0.05548141069678684
-0.02323349217661914
-0.01569645025979825
-0.03651731202776131
-0.03292977676793517
-0.006695122792034894
-0.01467564818549515
-0.0358723383225083
0.03113072236719198
-0.0386203514200977
-0.01406621464297984
-0.1208293642206251
-0.03082790000357384
-0.04035625079201236
-0.6647223171162796
0.01573020500616485
-0.01023605222772601
-0.005943612209210609
0.1829841823094842
-0.1031184023455923
-0.03612400782977883
-0.2400049559267544
-0.0152085752398038
-0.01595200605688308
0.08444800155692893
-0.1781397372913472
-0.2356588905832442
-0.1838969327303197
-0.6723442166446022
0.007106653796394458
-0.01758566611944851
-0.01563347358115852
-0.09532903151836478
0.1190690869737179
-0.02159261288877407
-0.2311190732899188
-0.03657688449588194
-0.007102988594215237
0.281335976767365
-0.01078976125707222
-0.08977037043429204
-0.1546286515130574
-0.003731849927574441
-0.04196285986667308
-0.05063023579686029
-0.1946494523576578
-0.007593367135844904
-0.03898934232888684
-0.003478451127717793
-0.5405521071235471
-0.1907138498167652
-0.1803203301298762
-0.02370507226187926
-0.009362579574119864
-0.06287783503207556
-0.05580273604355371
-0.01489685500543702
-0.07034900593590274
0.005411619067104907
-0.01743389211212557
-0.09369761606422522
-0.2799695056301451
-0.009397386515734418
-0.02482705006429931
-0.02113669936935827
-0.07716276090888002
-0.08809562297060314
-0.09053546076371514
-0.01165761424870266
-0.9028063648213422
0.1629192453781182
-0.08181888031425885
-0.2478209965299737
-0.04091437106435218
-0.009153521902998401
-0.2520012734606457
-0.2020325624803538
-0.02995236472469339
-0.1152112233768649
-0.01874207075762333
0.5635919221259323
-0.02551153369677712
-0.2119846347312319
-0.02470171263943387
-0.004180047059051578
-0.01090448584239665
-1.238966459468144
-0.1790538431631102
-0.2241375669698555
0.005172034882888937
-0.04015375296064419
-0.2342064676923343
-0.06775247433301058
-0.05259399257869683
-0.1481584732476754
-0.1766114297328542
-0.07079821398518397
-1.208511512847641
-0.1604514310515617
-0.5469001725978463
0.08044271224435759
-0.005753020384406868
-0.02072503521756973
-0.0455092715922865
-0.03710436744341639
-0.02749221565832869
-0.1277798036675339
0.082219201095728
-0.003393361443966653
-0.01001336506887554
-0.5585938538597284
-0.8441569976638134
-0.1718340519962573
-0.007705899377649017
-0.1236213133505892
0.0004187861054562418
-0.0001751928237544433
-0.002903579248975746
-0.06181871717337333
-0.2309921666896941
-0.01323956838926661
-0.1107449668321512
-0.1582702551957346
-0.01307343778106762
-0.03400282608927439
0.03105094932064761
-0.05935151086022359
-0.07295595277239879
-0.4893315922418559
-0.2109402227443247
-0.07888034348754382
-0.07680162972444476
-0.01917462905452094
-0.1123639079239475
-0.1657213611893129
-0.08222992380283528
0.02544790926776249
-0.08830776135728555
-0.05131079734776189
-0.01490810809447795
-0.1136960909599826
-0.2839155321822551
-0.06058320938733625
-0.01785440199442041
0.0003957182048910935
-0.01016205261435851
-0.0104035916515047
-0.2391435497375437
-0.01425564357905652
-0.2142067508751775
-0.0106034215912752
-0.07571063927399049
-0.004353345453643545
-0.02329172392187486
-0.3965429264981393
-0.9357753057425638
-0.01123910069497651
-1.034830999074547
-0.5974430351937656
-0.01044560776613458
-0.6659454818786371
-0.1907708387528376
-0.005266249806651857
-0.1220686201162975
-0.0168585961616253
-0.127096933919564
-0.06385093921804928
-0.08217373217635023
-0.005388097863735021
-0.002878309439333672
-1.352587142677277
-0.01157409308365764
-0.182128450499093
0.001140136366945287
-1.000430952626565
-1.256374217819729
-0.07697093432447397
0.01483030498017969
0.1647174608298704
-0.004690254854877436
-0.02296635360031617
-0.004307637496619828
-0.2368123226633197
0.3652240632388692
-0.04270577218986458
-0.2160248868358466
-0.01524144102322545
-0.6463742329592904
-0.07099497391020425
0.1874464009865801
-0.306804689347907
-0.05120747074140881
-0.07095387059339932
-0.01583579049558097
-0.02135914659131411
-0.5994312171906035
-0.1552271529985927
-0.09556046331129553
-0.1173244926485499
-0.5465043668269407
-0.04580245630011135
-0.8967110722476322
5.591722241447166e-05
-0.2464356097061645
-1.060781084747818
0.1626330729344564
0.2880597010628959
-0.1729617894051491
-0.1866481598439435
-0.2190336428199131
-0.0653446528658945
0.02504286133349784
0.0425518365084127
0.004193598437912601
-0.1539306968221186
0.02667719359996799
-1.374528491116229
-0.088035592099549
-0.4828154968985946
-0.3379589593266522
-0.2221931272289203
-0.1825980391539624
-0.01696932511583127
-0.01536866683931346
-0.09342881375447395
0.1758071426020492
0.3837324077424519
-0.1987941330342274
-0.1548479656190538
-0.2152011220293804
-0.06414925575483474
-0.1628403765735607
-0.1742925835298577
-0.1287848195951407
-0.1117833449513911
0.4626745081075553
-0.2862569441452759
0.4344006403670756
-0.5855269672506881
0.07428186236675781
-0.1859024856946468
-0.06861954387177856
-0.07940634297880381
-0.9005232720662035
-0.213263356473734
-0.1948433038956827
-0.3578928162718633
-0.4699151787495177
0.569351262232657
-0.2184238736990843
0.003711903405505928
-0.0660278982029761
0.3466115371379445
-0.03381024862735561
-0.1230562412356567
-0.1837147748094042
-0.0643456749874758
-0.01633943783835998
-0.2018934543717987
0.1989756797707214
-0.01270410496172564
-0.0997485268079755
-0.1789686464956871
-0.3227905627205095
-0.3055004588623028
-0.08333990582731045
-0.009615409453231515
-0.08243989437127879
-0.6454217551966004
-0.6794387830200166
-0.3225363101511752
-0.05981880918400991
-0.04847831861208302
-0.02419313979210224
-0.07120772318281493
-0.05377043756833747
-0.371417474322235
-0.9692316994990249
-0.008941267520321811
-0.08633948568019777
-1.152686521410833
-1.049863399157711
-0.1115313070868475
-0.04301647879052303
-0.06693713588694265
0.3872318184323419
-0.3365995936369897
-0.05050414857092361
-0.6098702351659122
-0.1371642127809309
-0.246058574294242
-0.2167713168311395
0.4726898929466619
-0.6416852645514607
0.07850045828285585
-0.02812483627319541
-0.5746408406155539
-0.05569334223909237
-0.369454459065502
0.1113587061595921
-0.1952757876720955
-0.06214992488060055
-0.1255908260801907
-0.3543116897209491
-0.08173799846680753
0.516304081717932
0.08787835679837122
0.4685381143232247
-0.1169013471402398
-0.2096718865343958
-0.5058284263363984
-0.1370077761106649
0.02313086218753394
-0.05643859731688432
0.09805446138772392
-0.2996959744508223
0.2365373517688622
0.003262668795868869
-0.002487423911279084
-0.5042571455810877
-0.179629392403115
-0.09709645480757588
0.5812972659083735
0.1402777042546466
0.3415119441362041
0.2249061988506152
-0.5711527909028367
-0.1970242205934975
-0.2236805936692927
-0.2211342275142956
-0.06308144763595377
-0.6831664921106287
-0.1870823007408337
0.3033102317870057
-0.1920109075784872
-0.01140443107286539
-0.1583110545769127
-0.01280795128811844
-0.1719631956265534
-0.4511878993552604
-0.07596944635336167
-0.2105594869113302
-0.07601962050323033
-0.1056211552309304
-0.1314893988117493
-0.07187525778043409
-0.4373423442283929
-0.4068940752436868
-0.02223317712709653
-0.07903524381257236
0.331317232533096
-0.2545209494666624
-0.1697505839360667
0.5231166502794959
-0.1921995263176839
0.02273014522471463
-0.458905361322891
0.05270296367235485
-0.05844090336773772
-0.1458444000971409
-0.5968981095358187
0.1565499099498984
-0.5710375548059684
-0.5451472109952924
-0.0997383382669553
-0.5169761161983309
-0.03569472002888734
-0.1553860701294262
-0.418408119636424
-0.01596326033680825
0.2892027776094496
0.4900732902506081
-0.1692057716053144
-0.004385132677260183
-0.08824467341593896
0.5248422982932001
-0.03173572944878651
-0.4494188846940657
-0.0314402629213709
0.4624615348908612
-0.01847073038713293
-0.5546909003869076
-0.2431295667113909
0.1792862979246862
-0.3182646660256638
-0.1845485998013377
0.04590563937243604
0.03029324285408214
0.05757510517491338
-0.3073105754538879
-0.161003110027879
0.4128188184816825
)
;

boundaryField
{
    FrontBack
    {
        type            empty;
    }
    Top
    {
        type            zeroGradient;
    }
    In
    {
        type            zeroGradient;
    }
    Bottom
    {
        type            zeroGradient;
    }
    Out
    {
        type            fixedValue;
        value           uniform 0;
    }
    circle
    {
        type            zeroGradient;
    }
}


// ************************************************************************* //
