/*--------------------------------*- C++ -*----------------------------------*\
| =========                 |                                                 |
| \\      /  F ield         | OpenFOAM: The Open Source CFD Toolbox           |
|  \\    /   O peration     | Version:  2412                                  |
|   \\  /    A nd           | Website:  www.openfoam.com                      |
|    \\/     M anipulation  |                                                 |
\*---------------------------------------------------------------------------*/
FoamFile
{
    version     2.0;
    format      ascii;
    arch        "LSB;label=32;scalar=64";
    class       surfaceScalarField;
    location    "24.4";
    object      phi;
}
// * * * * * * * * * * * * * * * * * * * * * * * * * * * * * * * * * * * * * //

dimensions      [0 3 -1 0 0 0 0];

oriented        oriented;

internalField   nonuniform List<scalar> 
1171
(
-0.945751
0.945751
0.777166
-1.08371
0.306548
-0.190903
-0.81594
1.00684
0.0542494
-0.0681706
-0.275673
0.343844
-0.777166
0.0831867
0.693979
0.919392
-0.203604
-0.715788
0.829213
-1.047
0.217791
-0.353478
-0.0385576
0.392036
-0.000829841
0.600203
-0.599373
-0.617404
1.02562
-0.408212
-0.421649
1.00481
-0.175594
0.234181
0.100383
-0.334564
0.975548
0.0292587
0.292111
-0.0579291
1.00641
-0.0308595
0.738586
-0.929489
-0.786684
0.614687
0.171997
0.229789
-0.847193
0.558413
-0.914349
0.355936
-1.08092
0.671159
0.409765
-0.643171
0.642342
0.0331638
-0.252562
0.219398
0.0332223
-0.647578
0.614355
0.465649
-0.504207
-0.839296
0.893183
-0.0538871
1.00122
0.005184
0.919506
-1.07666
0.157158
1.02306
-0.0218321
-0.696646
-0.0900374
1.26809
-0.86635
-0.40174
0.183759
-0.0732845
-0.409595
0.482879
-0.274317
0.184917
0.0894008
-0.60276
-0.480954
0.983157
-0.0636511
-0.0278578
0.880667
-0.85281
0.501441
0.766648
0.526918
0.0227459
0.442904
-0.78943
-0.107482
0.896911
0.599751
0.240723
-0.840473
0.0255348
0.633726
-0.659261
-0.510148
-0.570776
-0.386382
-0.690282
0.0257616
0.246216
-0.271978
-0.955578
-0.0367689
0.992347
0.370677
0.0213589
0.850889
0.0685025
-0.602747
-0.0404245
0.0369262
-0.826356
0.128247
0.949649
-1.0779
-0.407919
0.030149
0.37777
-0.719771
-0.235807
-0.775393
0.903641
0.690085
0.335531
-0.576627
1.00451
-0.822347
-0.182159
-0.107393
0.0223991
0.0849944
-0.457726
-0.0464812
-0.325581
1.01567
-0.00636317
0.428102
-0.421739
-0.521794
1.12154
0.712302
-0.819784
0.383584
-0.0649918
-0.318592
0.76488
-0.76488
-0.930005
0.041885
-0.317558
-0.697383
0.669525
-0.0355659
-0.144718
0.180284
0.885101
-0.00443401
1.05631
-0.815591
0.22309
-0.319977
0.0968867
0.968854
-0.117965
-0.674429
-0.0595583
0.733987
0.150206
-0.231774
0.0815684
0.80202
-1.00562
-0.442181
0.310185
0.131995
0.681968
-0.648746
0.877296
-0.39853
-0.478767
0.490915
-0.694339
0.0364237
0.657916
0.128381
0.671938
0.0390227
-0.710961
0.137292
-0.0954071
-0.51252
0.1046
0.0379396
-0.907468
0.869529
-0.547195
-0.759697
0.0630501
0.497022
-0.0541186
0.275051
-0.832788
0.557737
0.424494
0.575506
0.599813
-0.562887
-0.377221
-0.0086164
0.385837
0.533921
0.230959
-0.684124
0.709659
0.0874275
0.885206
0.00780155
-0.68223
-0.765793
0.803733
0.61238
0.125743
0.331818
-0.45756
-0.155197
0.5588
0.074926
0.801978
-0.885393
0.0834148
0.66275
0.341756
-0.431964
0.712311
-0.586568
0.409017
0.149396
-0.0570205
-0.648076
-0.254798
0.902874
-0.116807
-0.648073
-0.61366
0.363891
0.24977
0.664086
-0.656285
0.308278
1.04529
0.0110231
-0.765793
-0.153333
0.0459392
0.712302
0.791172
-0.791172
0.844418
-0.830837
-0.0135814
-0.454244
0.878738
-0.194512
-0.318008
0.762794
-0.669744
-0.0930492
-0.937659
0.289583
0.108051
-0.710798
0.819784
-0.974981
-0.194502
0.166315
0.0281866
0.108621
-1.00253
0.893904
0.540258
-0.0133401
-0.289321
0.595621
-0.3063
-0.656652
0.765274
-0.158261
0.706586
-0.776168
0.0695826
1.10661
-0.645711
-0.4609
0.734152
-0.0675435
-0.012918
0.0108422
0.00207585
-0.800121
-0.77971
-0.0362309
-0.697383
0.577924
-0.547775
0.195522
0.606039
-0.801561
0.779375
0.166376
0.491083
0.508917
-0.109256
-0.678311
0.787567
0.884296
-0.0823185
-0.734152
0.803733
0.180434
-0.432995
-0.0129397
-0.00482435
0.017764
0.679673
-0.434681
-0.244993
0.693979
-0.0449053
-0.0731239
0.568401
0.111272
-0.012434
0.00217802
0.010256
0.00315659
-0.0160746
0.146027
-0.211019
-0.949433
0.0427649
-0.1457
-0.0484745
0.139538
0.795964
0.742718
-0.167212
0.481619
-0.286098
-0.163788
0.386878
0.645629
0.0483499
0.228961
-1.0598
-0.974981
0.316558
0.669525
-0.163104
0.018386
-0.838729
1.00807
-0.169342
0.485163
-0.107393
0.801985
0.305661
0.305478
-0.0133672
-0.680776
0.680776
0.228221
0.66869
-0.0171287
0.445231
0.46575
0.0292031
-0.0421427
0.547545
-0.0072869
-0.656652
0.57116
0.191634
-0.00274087
0.0135831
-0.645629
0.1531
0.854971
0.0254127
-0.713119
0.687707
0.760717
-0.821987
0.0612699
-0.779375
-0.0373943
0.0515724
-0.0141781
0.0856507
-0.117837
-0.104117
0.221954
-0.0085881
-0.00384588
0.749405
-0.723992
0.962832
0.0440117
-0.344675
-0.604319
0.948994
-0.00064864
0.000648639
0.157699
0.463087
0.51391
-0.976997
-0.190758
-0.556481
0.747239
-0.017826
0.19811
0.382983
-0.232777
1.09685
-0.633768
0.846324
0.943405
-0.429495
0.188471
0.765274
0.58968
0.253557
0.639626
-0.648073
0.319224
0.0104401
0.000958065
-0.0113981
0.89789
0.127565
-1.02546
-0.55882
0.536988
0.545756
-0.55882
-0.58968
0.536988
-0.00215649
1.04901
-0.0861772
-0.533921
0.449719
0.0842012
0.521444
0.681762
-1.20321
0.476111
0.620744
0.728204
0.490662
-1.21887
0.443821
0.499584
0.449719
-0.525574
-0.53472
-0.647952
-0.479279
-0.170129
-0.00614249
0.00614249
0.571891
0.567359
-1.04664
0.698099
-0.366281
-1.02057
0.374861
-0.700223
0.464415
-0.043529
-0.89986
0.943389
0.453397
-0.0980613
0.995951
-1.12007
-1.01869
0.149564
0.869126
0.437538
-0.201658
-0.23588
0.766605
-0.830256
1.05335
-0.934804
-0.118548
-0.124913
-0.760479
-0.185602
0.83446
-0.648858
-1.1104
0.98549
-0.499718
0.604939
-0.10522
-0.742166
-0.00566875
0.747834
0.00421438
-0.00486302
0.424447
0.066716
-0.960853
0.894137
-0.803346
0.69409
1.024
0.187735
-1.21173
0.00530739
-0.00431395
0.390151
-0.360096
0.0401192
0.904024
-0.947553
-0.698154
-0.874174
0.113695
-0.119511
-0.957191
0.0223864
0.430136
0.0514838
0.176851
0.260687
-0.609532
0.603863
0.478767
-0.997921
-0.922669
0.12634
0.129446
0.526273
-0.655719
-0.0138019
-0.568708
0.579564
0.181153
0.083259
0.912692
1.13505
0.955669
-0.933282
0.0469621
-0.0469621
-0.0803443
-0.187207
-0.0144504
0.334311
-0.0177526
0.260572
0.898891
-0.00316036
-0.00542774
0.657783
0.342217
0.796744
-0.60276
-0.767241
-0.528154
-0.483101
0.483101
-0.207277
-0.110281
0.688826
-0.923159
0.234333
-0.476314
-0.538984
0.335888
-1.02617
-0.931403
0.812855
-0.571351
0.685046
0.677461
0.173184
-0.850645
-0.633374
-0.17867
0.840787
-0.662116
0.0325123
-0.00125757
0.0029338
-0.00167623
-0.120436
-0.0667713
1.02471
0.71981
-0.364888
-0.354922
0.48393
0.748166
-0.519945
0.0125147
-0.286832
0.00639189
0.806582
-0.812974
-0.34871
-0.0936873
0.143243
-1.05184
0.0263876
-0.749976
0.0811731
0.737715
-0.818888
-0.853925
0.103949
0.694099
-0.787786
0.236855
-0.354692
-0.543105
-0.0902697
0.36859
0.724894
-0.0125838
0.00119175
-0.00119175
-0.00396447
0.044764
-0.0343239
-0.0163636
0.0132032
-0.491621
0.32862
0.801625
-0.806218
0.00459333
-0.67004
0.751213
0.781188
-0.0870897
-0.676725
-0.1772
-1.12427
0.0207252
0.0262368
-0.485229
-0.862327
-0.887992
0.486252
-0.101778
0.099441
0.00233734
-0.284671
-0.200557
0.454802
0.712032
-0.0476901
-0.000784434
1.14211
0.536178
0.184833
-0.72101
-0.357961
0.0732901
-0.00732587
0.0060683
0.690571
-0.945368
0.00525575
-0.00525575
-0.743084
0.746591
-0.00350701
-0.18111
-0.121386
-0.699075
0.189734
0.597833
-0.0552204
-0.877746
-0.326204
0.0876602
0.238544
0.719233
-0.71464
0.358467
0.258399
-0.616866
-0.171757
-0.69389
-0.124999
-0.206906
-0.136469
0.468576
-0.515057
0.198778
0.735878
-0.934655
0.490915
-0.12931
0.0275318
0.175688
-0.312157
0.596754
-0.0961856
-0.500568
-0.285467
0.305684
-0.0202174
0.606349
0.0917495
0.0872984
-0.311558
0.169319
0.142239
-0.204397
0.0510646
-0.315226
0.0287097
-0.118107
0.0893977
0.872712
-0.166755
-0.0143554
0.552304
0.295944
-0.660833
0.400691
-0.400691
-0.197751
-0.385212
-0.211941
-0.385212
-0.725481
-0.851134
0.18139
-0.181205
0.7324
0.0489788
0.119896
0.604998
0.109542
0.1197
0.00918461
-0.128884
-0.0935449
0.664331
-0.977191
0.372873
-0.074429
0.0823884
-0.00795932
-0.749206
-0.175433
-0.620035
0.804867
-0.522025
-0.0899386
-0.222218
-0.336345
-0.0805142
0.0805142
0.0488432
0.00272914
0.140425
0.150506
-0.726246
0.106211
-0.073471
0.47199
0.52801
0.781389
0.0284521
-0.00182574
-0.0266263
-0.297278
-0.580467
-0.583185
0.114037
-0.118989
0.00495184
-0.151446
-0.414193
-0.111349
0.709182
-0.581507
-0.167699
-0.0675395
0.0264622
0.254016
-0.486655
-0.198092
-0.191402
-0.0196166
-0.477026
0.435923
0.0411032
-0.127959
0.294204
-0.86498
-0.538964
0.615637
-0.875415
0.703659
0.440917
-0.0283729
0.0518481
-0.0234752
0.0365728
-0.636512
-0.00582403
0.642336
-0.893422
0.649246
-0.72959
-0.164336
0.00781781
-0.00781781
-0.299043
0.407141
-0.0169905
0.0156985
0.0127536
0.599796
0.604124
-0.520709
0.0108741
0.00364412
-0.00245236
0.00511233
-0.00511233
-0.485017
0.576766
0.0144251
-0.0144251
-0.778232
-0.0092565
0.0134709
-0.533694
0.639905
0.641715
-0.645222
0.0698129
-0.0698129
-0.033457
-0.00868574
0.00670788
-1.05274
0.591837
-0.48268
-0.00486302
0.603324
0.0105848
-0.613909
-0.711619
0.130112
-0.315592
-0.014132
0.329724
-0.0292266
-0.0184634
-0.608481
-0.0280311
0.0262368
0.0055905
-0.000334748
-0.00344158
0.00344158
-0.193578
0.282976
-0.47024
0.135583
0.661161
-0.116012
0.00174204
-0.00174204
0.508414
-0.225968
0.00846645
0.018419
0.000249308
0.547545
-0.773513
-0.652209
0.637854
-0.0755382
0.329637
0.771956
-0.00396447
-0.0840352
0.0976183
-0.628918
0.551828
-0.341729
-0.108294
-0.0289166
-0.0258123
-0.0181893
0.458463
-0.0847824
-0.415786
0.699225
0.00103016
0.00468541
-0.00468541
-0.146301
-0.0430723
-0.572108
0.621087
-0.13249
0.510839
-0.194458
0.933044
0.76828
0.0055905
-0.811658
0.695156
0.0737703
-0.0259441
-0.0478262
0.509895
0.0978886
-0.0115682
0.0639975
-0.0524293
0.0081266
-0.0081266
-0.736735
0.0228508
-0.0450177
0.0634367
-0.0860586
0.0860586
0.00364412
-0.00222242
0.729761
0.12521
-0.317247
-0.0969466
-0.519164
0.0062308
-0.0659888
0.0659888
-0.0600833
0.0816836
-0.0816836
0.0256066
-0.0256066
-0.355899
-0.0760653
0.240746
0.0694398
0.0490286
-0.737515
-0.0644769
0.160864
0.0195698
-0.240171
0.0813907
-0.0813907
-0.46611
-0.0489471
0.230714
-0.0113165
0.00214892
-0.657674
0.659831
-0.0279501
-0.0321333
0.0707782
-0.079464
-0.0118707
-0.157385
0.169256
-0.150456
-0.204236
-0.0808432
0.0808432
0.0548687
-0.0548687
-0.029068
-0.0939904
0.123058
-0.0314669
-0.18858
-0.0091979
0.00674554
-0.138718
0.421693
-0.0256455
0.501187
0.00771377
0.00254219
-0.0500252
0.0500252
-0.735414
0.317284
-0.128813
-0.20819
-0.0235845
-0.0156807
0.0178296
0.195843
0.0261117
-0.000457869
0.000707177
0.0841146
0.0299223
0.0555569
0.105307
-0.00829715
0.00751271
-0.000570333
0.00490607
0.00598036
0.0039995
-0.00997987
-0.0010413
0.00874393
0.0279378
-0.0279378
0.0483168
-0.0424916
0.0424916
-0.190777
0.00744825
0.0284266
-0.0748464
0.01748
0.0773657
-0.0773657
0.236946
-0.23463
0.0841734
-0.0668602
-0.167769
-0.0159332
0.0159332
0.406592
0.251324
-0.519687
-0.0808896
-0.0380991
0.542175
0.0393113
-0.0579235
-0.44182
0.103482
-0.153212
0.169701
-0.0164886
-0.0474434
0.0474434
0.875438
-0.592171
-0.00843491
0.00739361
-0.00554444
-0.285714
-0.000292942
0.00521541
-0.0460909
-0.628239
0.568111
-0.677146
0.0148544
0.159645
0.0159636
0.0244185
-0.158757
-0.334174
0.259327
-0.0559989
0.0269309
0.170814
0.13487
0.266803
0.263718
-0.247755
0.00564562
-0.1149
-0.222322
0.0680035
-0.0124467
0.159324
-0.134905
-0.0687015
0.152816
-0.418747
0.11929
-0.10181
0.0579197
-0.473706
0.174916
0.177565
-0.246266
0.00828606
-0.177895
0.177602
0.00402497
0.148791
-0.0280665
0.0492737
0.45914
0.0120047
0.0168139
-0.00607536
0.0376244
-0.23881
-0.202178
0.590918
0.169371
0.0613437
0.0770587
-0.0632223
0.0292089
-0.0770351
-0.0303583
0.166186
-0.151332
-0.00137542
-0.00168938
-0.106033
-0.0291041
0.00613729
0.251437
-0.000903038
-0.0502551
-0.311629
-0.0110152
0.217684
0.138438
0.178846
0.0575141
0.0974129
0.0650373
0.534759
-0.0105502
0.104027
0.0428049
0.0661656
-0.108971
-0.268363
-0.195952
0.0281831
-0.222269
0.283446
)
;

boundaryField
{
    FrontBack
    {
        type            empty;
    }
    Top
    {
        type            calculated;
        value           uniform 0;
    }
    In
    {
        type            calculated;
        value           uniform -1;
    }
    Bottom
    {
        type            calculated;
        value           uniform 0;
    }
    Out
    {
        type            calculated;
        value           nonuniform List<scalar> 10(1.20431 1.04702 1.18267 1.06457 1.17242 0.978863 1.13925 1.0153 0.598442 0.597153);
    }
    circle
    {
        type            calculated;
        value           uniform 0;
    }
}


// ************************************************************************* //
