/*--------------------------------*- C++ -*----------------------------------*\
| =========                 |                                                 |
| \\      /  F ield         | OpenFOAM: The Open Source CFD Toolbox           |
|  \\    /   O peration     | Version:  2412                                  |
|   \\  /    A nd           | Website:  www.openfoam.com                      |
|    \\/     M anipulation  |                                                 |
\*---------------------------------------------------------------------------*/
FoamFile
{
    version     2.0;
    format      ascii;
    arch        "LSB;label=32;scalar=64";
    class       volVectorField;
    location    "24.4";
    object      U;
}
// * * * * * * * * * * * * * * * * * * * * * * * * * * * * * * * * * * * * * //

dimensions      [0 1 -1 0 0 0 0];

internalField   nonuniform List<vector> 
808
(
(0.895634 -0.0106315 0)
(1.01898 -0.0361909 0)
(1.20108 -0.0664649 0)
(1.0678 0.0096286 -2.55235e-21)
(1.47279 -0.283014 0)
(0.958697 -0.0281825 0)
(1.13231 -0.0477159 -2.34307e-21)
(1.12834 -0.039631 0)
(1.34341 -0.223468 2.27862e-20)
(1.22566 -0.0905429 -4.52978e-21)
(1.2552 -0.0182906 6.49462e-21)
(1.37488 -0.24906 0)
(0.990654 -0.0398398 0)
(0.743956 -0.020347 0)
(0.95615 0.066266 1.79312e-20)
(1.0811 -0.0284572 0)
(0.845664 0.0527034 -6.10334e-21)
(0.980641 -0.0268628 -8.87235e-23)
(1.25085 -0.00777727 0)
(1.11903 -0.00183351 0)
(1.24368 -0.016057 -9.06324e-21)
(0.927588 0.124021 1.13869e-19)
(1.07511 0.0123337 -1.40996e-20)
(1.17703 -0.0458446 0)
(0.953811 0.186581 0)
(1.34708 0.0586875 -3.08097e-20)
(1.27661 -0.173624 5.89139e-21)
(0.967232 -0.0373668 -4.58136e-21)
(1.07784 -0.0250371 0)
(1.04967 0.0351913 -2.4085e-22)
(0.985309 -0.0259884 4.78081e-24)
(1.12446 -0.0203395 0)
(1.05481 0.0469406 0)
(1.08001 -0.0345084 3.82925e-21)
(1.29464 -0.0808694 6.53969e-21)
(0.743048 -0.112226 1.12953e-19)
(0.8736 -0.0271517 -6.51102e-21)
(1.03586 0.0445997 1.06562e-21)
(1.19084 0.0534021 -2.37503e-21)
(1.0961 0.0412425 0)
(1.25389 -0.0770523 -1.19107e-20)
(1.27085 -0.134713 0)
(1.00862 -0.00433248 -8.12832e-21)
(1.13977 -0.0355676 7.08788e-21)
(1.25737 -0.080003 0)
(1.01158 0.0177899 -2.0693e-20)
(1.00432 0.0378691 1.9898e-21)
(1.24972 -0.246568 1.5679e-21)
(1.17799 0.0551889 -4.50455e-21)
(1.39615 -0.174542 -3.29172e-20)
(1.12919 -0.0373271 4.65815e-21)
(1.14738 -0.0705881 0)
(1.12013 -0.00102686 7.26184e-21)
(1.17009 -0.0294799 0)
(1.32457 0.235269 3.5891e-21)
(1.07682 0.0473185 -1.78562e-21)
(1.2456 -0.0190871 0)
(1.2495 -0.0858366 2.05954e-21)
(1.22967 -0.0966651 4.86244e-21)
(1.15201 0.0301081 -1.38213e-22)
(-0.202591 0.143377 0)
(1.2134 -0.211786 -4.84085e-21)
(1.21554 -0.0766419 0)
(1.40627 -0.095595 -2.40824e-20)
(1.16022 -0.0508805 -7.54618e-21)
(1.04117 -0.0285128 -8.10269e-21)
(1.32978 -0.107256 2.44047e-20)
(0.64878 0.017806 0)
(1.16689 -0.0436676 0)
(1.44008 -0.347288 0)
(0.895753 0.0294721 -1.84014e-22)
(1.24916 -0.135861 -3.98708e-20)
(1.00823 0.0459212 0)
(1.05876 -0.0469328 -3.51751e-21)
(1.12121 -0.332697 -5.86294e-20)
(1.13048 -0.0368042 -1.02076e-20)
(1.15128 0.0164033 2.18476e-22)
(1.32066 0.50024 2.47562e-20)
(1.10522 -0.0405527 0)
(1.0135 0.284136 -1.89265e-19)
(1.36522 0.0259275 1.66804e-20)
(0.749361 0.0169226 0)
(0.846407 0.0322411 -1.00132e-20)
(0.969043 -0.108792 4.39086e-21)
(1.12974 -0.0405256 8.05255e-21)
(1.19456 0.00329943 1.17969e-21)
(1.2882 -0.230997 0)
(1.34766 0.290555 0)
(1.09177 -0.00195929 -1.36931e-20)
(1.41589 0.0993767 3.44351e-20)
(1.07963 -0.0222646 1.33347e-20)
(1.31358 -0.122433 -1.26446e-21)
(0.964614 0.025519 1.78216e-20)
(1.00397 -0.0240327 0)
(1.11454 0.0158209 1.62748e-21)
(1.25057 -0.0564405 -5.75617e-20)
(0.75175 0.0202909 -2.05152e-21)
(1.37003 -0.0566741 0)
(1.31464 -0.0957911 0)
(1.40879 -0.0771727 -3.9797e-20)
(1.10877 -0.0413262 -3.32991e-21)
(1.12843 0.00378347 -7.087e-23)
(0.951281 0.0213207 1.13329e-20)
(1.18816 -0.0142676 -2.56857e-22)
(1.3103 -0.00294276 -1.67538e-20)
(1.00241 0.00533482 1.38959e-20)
(1.48144 -0.084926 0)
(0.888731 0.144631 0)
(1.10188 0.0323801 3.83983e-21)
(1.20033 -0.217897 -8.16938e-21)
(1.27597 -0.015269 9.65265e-21)
(1.04701 0.0466383 -1.25526e-19)
(1.16263 0.0388331 -1.49174e-21)
(1.19972 0.174807 4.13941e-21)
(0.792238 0.0216495 0)
(0.917923 -0.0466949 7.74568e-20)
(1.15003 0.017391 -5.10212e-21)
(1.43278 -0.255352 -1.69566e-20)
(1.13721 -0.0525742 -6.61917e-21)
(0.9299 0.0154302 2.49072e-21)
(-0.354041 0.0066916 0)
(0.858487 -0.0182479 2.20196e-21)
(0.804064 0.0230448 0)
(1.06279 0.00117601 -9.55031e-23)
(1.01259 0.0289822 0)
(1.31234 0.324099 5.68959e-21)
(1.03471 -0.0531139 -3.2733e-20)
(1.35897 0.18375 4.5727e-22)
(1.14698 -0.0682899 0)
(1.09301 -0.0224425 0)
(0.611133 0.0189804 0)
(1.14209 -0.0395075 -3.17204e-21)
(1.24381 -0.0553524 6.5981e-21)
(1.06781 0.112465 -3.50246e-20)
(0.846526 -0.0283018 0)
(1.10673 0.0209073 -1.17403e-21)
(0.999109 -0.000866524 4.68058e-21)
(1.13849 0.00561414 -2.29389e-21)
(0.996257 0.0345099 3.25455e-21)
(1.1317 0.00279567 5.94123e-23)
(-1.64094e-05 0.0790584 0)
(1.09509 -0.0259629 -1.4816e-20)
(1.0581 -0.0860828 2.33369e-21)
(0.718378 0.0251295 -2.95684e-21)
(1.26284 0.175016 3.67062e-21)
(1.03098 0.160153 5.2892e-21)
(1.04655 0.0173924 1.73416e-20)
(0.990589 0.0259698 0)
(1.16619 -0.189671 -1.75252e-20)
(1.0584 0.122879 0)
(0.9435 0.0314794 6.0972e-21)
(0.968121 0.282775 1.51297e-19)
(0.972836 0.0363074 0)
(0.818461 0.101062 0)
(-0.0933565 0.081833 -6.39418e-20)
(1.34714 0.139981 -1.1285e-20)
(0.686608 -0.0231834 0)
(1.4719 0.0314483 0)
(1.09677 -0.0812684 0)
(1.36437 0.0963832 1.33771e-20)
(-0.0458935 -0.0789474 0)
(-0.0512539 0.0944015 3.0286e-20)
(1.01022 -0.0269161 7.9294e-20)
(1.00947 0.0389041 9.38202e-22)
(0.859393 -0.000550921 0)
(1.03788 -0.0514752 9.5727e-21)
(0.893738 0.0216319 0)
(0.740099 -0.00663412 -8.56976e-20)
(1.03328 0.0499072 7.68237e-21)
(1.15006 -0.0461876 2.47837e-21)
(1.09595 0.00815794 6.48517e-21)
(1.01438 0.0701421 -1.2458e-20)
(0.702823 0.144837 -5.26576e-21)
(1.1356 -0.347913 6.48655e-22)
(0.918379 -0.0235894 0)
(1.0689 -3.10934e-05 -1.4156e-20)
(0.873413 0.00949745 -1.1362e-20)
(1.36828 -0.16414 1.91981e-21)
(0.686482 0.0240968 0)
(1.05434 -0.138582 0)
(1.12982 -0.059589 3.12138e-21)
(1.39128 0.220865 8.92317e-21)
(1.11776 0.0137122 4.64329e-21)
(1.03615 0.0166182 2.0041e-20)
(0.746181 0.0888365 -8.14934e-20)
(0.813192 0.00398748 2.04066e-20)
(1.13623 -0.0182975 4.53821e-21)
(1.36558 -0.0746663 -4.14738e-21)
(1.12353 -0.0488034 -4.97174e-21)
(1.30615 -0.0541246 3.55383e-21)
(-0.0954779 0.107521 4.6398e-20)
(1.26788 -0.047205 0)
(0.618857 -0.0188821 0)
(1.06055 -0.0293089 -6.95776e-21)
(1.10172 0.00925531 6.30468e-21)
(0.0565915 0.109082 0)
(0.880205 -0.0248156 4.1143e-22)
(1.12791 -0.0621937 -2.49236e-21)
(0.95568 0.0226852 6.4461e-22)
(1.07906 0.0391038 -7.74255e-21)
(1.00573 0.0201661 2.68997e-21)
(1.04613 -0.0540178 2.19858e-21)
(1.05875 0.0356394 0)
(0.354761 -0.0327394 0)
(1.04878 -0.0636765 0)
(1.13602 0.11404 -2.57966e-20)
(-0.0516974 -0.0676458 4.50404e-20)
(1.07417 0.0322704 -8.2438e-24)
(1.17177 0.00717669 0)
(0.757233 0.022312 -5.99796e-21)
(1.1427 0.0413306 1.11456e-21)
(-0.00106072 -0.0392821 -1.49991e-19)
(0.757411 0.0349743 -4.12992e-20)
(0.637688 -0.019548 0)
(0.921752 0.0443861 0)
(0.93272 0.0311907 7.08357e-21)
(1.02393 -0.104331 5.77131e-21)
(1.27789 0.400023 -3.51733e-21)
(1.10835 -0.0248957 1.06879e-22)
(1.18845 -0.0979194 -3.37389e-21)
(0.977532 0.0746131 0)
(1.36107 0.426526 -3.19088e-20)
(0.660732 -0.0193128 0)
(0.796072 -0.0233152 -3.43905e-21)
(1.05997 -0.0320225 3.96254e-22)
(0.594774 0.0155673 0)
(1.10031 -0.00633075 0)
(0.0223082 0.0915212 -3.67358e-20)
(1.18311 -0.152127 -2.82168e-21)
(0.719756 -0.0160288 2.62413e-21)
(0.990179 -0.00300955 0)
(0.554382 -0.017156 0)
(0.752119 -0.0200295 -3.30651e-21)
(0.540119 -0.0193008 -6.7802e-22)
(1.35048 0.0241362 3.10373e-22)
(1.29669 0.0615265 -8.32573e-22)
(0.692041 0.0193586 -1.46343e-21)
(1.15142 -0.0348645 1.68905e-22)
(1.17351 -0.0732159 -1.00712e-22)
(0.541496 0.016644 3.98005e-21)
(1.25928 -0.0636278 1.02823e-22)
(1.20384 -0.0812395 0)
(0.89916 -0.023088 0)
(0.487634 0.0188648 0)
(1.04678 -0.0267218 0)
(1.18181 0.00211427 -1.24972e-21)
(1.06208 -0.0774699 0)
(1.17329 -0.0496314 0)
(0.980257 -0.0511 0)
(1.06796 0.0615149 0)
(-0.0265303 -0.0445061 4.54816e-20)
(1.2119 -0.0147757 7.40979e-22)
(1.02453 -0.0124181 0)
(1.32005 -0.0266266 1.05746e-20)
(1.14953 0.0218598 1.11442e-21)
(1.12497 0.0487029 2.69133e-22)
(1.13009 -0.0488563 4.45343e-21)
(1.14407 -0.0335488 0)
(0.575653 -0.0165352 6.88845e-21)
(1.05219 0.0445714 1.21166e-20)
(1.26318 -0.111649 0)
(1.23711 0.00331818 -1.06162e-21)
(1.17669 0.061884 2.29206e-21)
(0.736021 0.163285 7.05594e-21)
(1.15229 0.0234274 4.13846e-21)
(1.18836 0.0524662 -5.96469e-21)
(1.0971 0.120143 0)
(1.1497 0.102722 -1.6811e-20)
(1.18239 0.120716 -1.3731e-21)
(0.619901 -0.155784 9.24453e-21)
(0.868792 -0.0176083 0)
(-0.0128547 -0.0221999 0)
(0.973289 0.113015 -1.81028e-20)
(1.15245 -0.0164205 0)
(1.28796 -0.0969855 2.40378e-20)
(1.21303 0.0691384 3.89445e-22)
(1.17218 0.0418111 5.73424e-21)
(1.15172 0.0712206 -2.11349e-21)
(1.33505 -0.0194509 8.11978e-20)
(1.0172 -0.322778 5.91897e-20)
(1.10492 -0.0453357 -1.75908e-22)
(0.950796 -0.0606634 0)
(0.936111 0.116215 0)
(0.906072 0.00254203 -2.94019e-20)
(1.31518 -0.182174 -5.94153e-20)
(1.13857 0.0199399 0)
(0.539994 0.037694 1.84241e-20)
(0.443644 0.210174 0)
(0.666011 -0.0487788 7.1387e-21)
(0.730343 -0.03477 -2.17991e-20)
(0.819475 0.0250347 -4.4911e-21)
(1.13719 -0.0555581 0)
(1.3152 0.128347 -4.54297e-22)
(1.20749 0.10814 1.1102e-21)
(0.668245 -0.163176 -7.16301e-21)
(1.14485 0.0135392 -3.9029e-21)
(0.722517 -0.163118 0)
(1.09282 0.0715016 0)
(1.07718 -0.0995866 1.02177e-20)
(0.772545 -0.125185 -7.21136e-21)
(1.30144 0.0923919 2.34654e-21)
(1.11631 -0.0176242 -4.04036e-21)
(1.04992 0.062398 -3.65182e-23)
(1.11046 -0.00442299 0)
(0.419113 -0.138728 1.35745e-20)
(1.34737 0.0881826 -2.06774e-20)
(0.811411 -0.134325 -1.09595e-20)
(0.118337 -0.0540891 -7.46132e-21)
(1.41021 -0.134751 2.20707e-20)
(0.936738 0.00396277 7.51641e-20)
(1.2087 -0.0403436 -1.04753e-20)
(1.0875 -0.035 1.20534e-22)
(-0.0701042 -0.0537235 -7.71095e-21)
(1.00041 -0.00696626 0)
(1.033 -0.0859835 -1.64339e-20)
(0.850941 -0.0347628 7.19566e-21)
(1.11263 -0.0473725 4.17816e-21)
(0.808857 -0.156732 1.3671e-21)
(0.506236 -0.0225305 1.06157e-22)
(1.41297 -0.380872 -1.55793e-20)
(1.12351 0.0225637 0)
(1.01631 0.0187875 -6.88925e-22)
(1.13968 0.028414 -2.48239e-21)
(1.20163 0.0503029 0)
(0.683189 0.0910994 -9.31e-21)
(1.12338 0.0324003 3.2681e-21)
(0.703475 -0.144014 9.74769e-21)
(1.14481 -0.0445067 3.31962e-21)
(0.811372 0.00667921 5.53125e-21)
(-0.0387491 0.00104069 0)
(0.500415 0.00473167 2.74904e-20)
(1.16435 0.0170057 0)
(1.05827 0.146401 2.00101e-20)
(0.991579 0.2272 0)
(1.13097 -0.0118585 2.58794e-21)
(1.01631 0.0271886 0)
(1.00297 0.0146471 0)
(1.38038 -0.115022 1.76532e-20)
(0.795859 -0.0850695 0)
(1.17695 -0.0376945 8.18717e-21)
(1.13064 -0.0254778 2.18952e-22)
(1.05667 0.0282807 2.98311e-21)
(1.29535 -0.0963847 -1.53181e-20)
(1.24683 0.122401 -3.8708e-21)
(1.3002 -0.146116 3.83575e-21)
(1.13219 0.0142505 0)
(1.15654 -0.0328647 0)
(1.08868 0.0363089 2.40942e-21)
(1.2285 -0.0412957 0)
(1.40454 0.221589 -2.34676e-20)
(0.835932 -0.0802279 -1.5467e-21)
(1.02703 0.0165004 2.24528e-20)
(1.26936 -0.0158489 -2.23965e-22)
(-0.0117554 0.00685431 0)
(-0.0337671 -0.0639746 0)
(-0.00252071 0.141608 -3.74167e-20)
(-0.0731129 -0.0532063 0)
(0.6698 0.00513253 -2.30536e-21)
(1.17226 0.0397574 -1.90513e-21)
(1.15012 -0.0121316 -4.65592e-21)
(1.18934 -0.0862369 -5.9983e-21)
(1.19861 -0.0584423 0)
(0.679652 -0.0197093 -1.99284e-21)
(1.11742 0.0550904 0)
(1.11105 0.0184964 8.64811e-22)
(0.509956 -0.109046 0)
(0.764221 0.0496098 -6.98853e-23)
(1.10484 0.0750679 0)
(1.17133 0.0389751 0)
(0.49465 0.0348597 2.42252e-20)
(0.511403 0.201424 -1.48229e-21)
(0.824012 0.0812668 4.77156e-21)
(1.01087 0.0178544 -9.76826e-21)
(0.190325 -0.0507145 0)
(1.25885 -0.0970291 -8.2666e-21)
(1.26448 0.0652037 -5.62981e-21)
(1.20706 -0.143291 9.86696e-22)
(0.569156 0.13182 8.52488e-21)
(-0.0555865 -0.0208523 -9.25601e-20)
(1.15375 0.0938797 0)
(-0.0320632 0.0367901 0)
(1.20977 0.0998449 -2.12824e-22)
(0.311239 0.235014 -9.17294e-21)
(1.16534 0.0486417 -8.81936e-21)
(1.11104 -0.0391812 0)
(1.18266 -0.0171027 3.52276e-21)
(1.21893 -0.243769 1.67376e-20)
(0.557902 -0.0400768 -9.55546e-21)
(1.13865 -0.035606 -8.85696e-22)
(1.15599 -0.0444098 -2.47365e-22)
(0.161257 -0.326823 2.22689e-20)
(1.21926 -0.0187177 -1.59382e-20)
(1.15138 0.0300054 0)
(1.14558 0.0964856 0)
(1.16471 -0.0637878 2.29147e-21)
(1.22392 0.0654799 5.08782e-21)
(0.704677 -0.259473 -4.74371e-20)
(1.19035 -0.118298 -1.66066e-20)
(1.14126 0.0583565 2.10759e-21)
(0.518191 -0.000558506 1.24742e-20)
(0.157464 0.0702325 -4.94884e-20)
(0.202568 -0.304065 3.35021e-20)
(1.17349 0.188751 -6.51998e-21)
(1.23354 -0.492379 4.95477e-21)
(1.37483 0.0208104 -1.05227e-20)
(1.18655 -0.0533559 -2.71555e-21)
(0.93564 -0.232222 9.58142e-20)
(-0.379772 -0.203679 0)
(1.22497 -0.0413187 -1.31996e-22)
(-0.0669651 -0.0297482 -1.84799e-20)
(1.19258 0.119952 1.84165e-22)
(1.17519 -0.0996651 5.28387e-21)
(1.08791 0.0338517 0)
(0.42314 0.0446748 0)
(1.17043 -0.0554785 0)
(1.36723 0.176897 -9.87145e-21)
(1.25806 -0.0357451 -1.93314e-20)
(1.1416 -0.0414436 -6.02742e-22)
(0.453145 0.0167585 0)
(0.60384 0.0108707 0)
(0.603614 -0.00323546 5.63167e-22)
(0.42119 -0.012971 0)
(1.21479 0.0733177 0)
(1.02071 -0.014888 2.57665e-20)
(0.083106 0.00570518 0)
(0.923629 0.0451688 0)
(1.1417 -0.0118979 0)
(1.17345 0.184666 -9.43296e-21)
(1.27821 0.0181663 8.47467e-21)
(0.965262 -0.0305683 6.89175e-21)
(1.29609 -0.398751 -1.07661e-19)
(0.427164 -0.147524 -5.28451e-21)
(1.18034 0.0608403 6.29261e-21)
(1.18566 0.0607079 0)
(-0.204657 -0.226796 0)
(-0.221213 0.187961 0)
(1.15765 -0.0377086 -3.29661e-21)
(1.3185 -0.287817 -2.23612e-20)
(1.37579 0.0606109 0)
(1.07588 0.0386496 -7.86814e-21)
(0.591124 -0.0903228 0)
(1.5016 -0.160872 6.90535e-20)
(0.412517 0.521052 1.18721e-19)
(0.296532 -0.0391983 0)
(1.10371 -0.275556 1.15567e-19)
(-0.0150457 -0.0675363 0)
(-0.219648 -0.361499 -2.90323e-21)
(1.37931 0.0548935 0)
(-0.207066 0.106282 3.72066e-21)
(0.983642 -0.0503184 0)
(1.23558 -0.112485 -9.52419e-21)
(-0.145625 0.0509088 -7.4955e-21)
(1.12339 -0.0326491 8.58252e-22)
(1.17567 0.0433421 -4.3924e-21)
(0.572688 -0.512636 -9.31787e-20)
(1.11605 0.0430852 -1.665e-21)
(1.19138 -0.127712 4.77998e-21)
(1.1812 0.25155 -2.3124e-20)
(1.15185 -0.1821 2.52686e-21)
(1.16058 -0.0240156 -3.38976e-22)
(0.000825382 -0.010873 -7.04978e-20)
(0.0575248 0.122744 -6.74845e-21)
(1.25138 0.14487 3.34472e-21)
(1.05849 -0.0502699 0)
(0.485888 0.226375 -6.03557e-21)
(1.4023 -0.438978 8.04784e-20)
(0.941948 -0.0642553 -5.95784e-20)
(1.43536 0.16438 7.11387e-20)
(1.08879 -0.0355825 3.49038e-21)
(1.18292 0.0311457 1.28918e-20)
(1.06127 -0.00785965 0)
(1.18201 -0.0336766 0)
(1.21656 -0.0796516 3.9506e-22)
(1.08816 -0.0203912 -4.5383e-21)
(1.09046 -0.138869 -2.22901e-21)
(1.09851 0.0601596 -5.24292e-21)
(1.40318 -0.0514998 -3.67736e-20)
(0.415558 0.0334687 0)
(1.15307 -0.0240463 1.19244e-20)
(1.33157 0.0108682 0)
(1.11601 0.0680599 -1.6704e-21)
(1.14591 0.0230186 0)
(1.04176 -0.00955356 1.37126e-20)
(1.2397 0.0365477 1.37442e-20)
(1.02089 0.0903329 0)
(0.05854 -0.0280242 1.57616e-19)
(0.882815 -0.210934 -7.51496e-20)
(1.19615 -0.0348203 -2.18353e-20)
(-0.118533 0.0312599 3.84963e-20)
(1.20009 0.0258921 2.48574e-22)
(0.664966 0.140995 -3.38756e-22)
(-0.093828 0.05436 -4.0126e-20)
(-0.0233509 0.0318946 -2.51968e-20)
(1.01951 -0.0293843 0)
(-0.0313428 -0.0386862 0)
(1.18185 -0.0421711 0)
(0.111963 -0.10136 0)
(1.11459 -0.0282998 0)
(0.147201 0.0319794 0)
(1.13545 0.0425826 0)
(1.16792 -0.00276762 0)
(1.40012 0.11736 1.78227e-21)
(0.578433 -0.286049 -2.11278e-20)
(-0.111696 0.16628 0)
(1.14208 -0.0843703 6.19974e-20)
(1.25918 0.0227055 2.85914e-21)
(1.20329 -0.0414337 0)
(-0.0365875 -0.0423266 0)
(1.16423 0.007954 2.12423e-21)
(1.17003 -0.0145633 -1.42065e-21)
(1.16869 0.391964 0)
(0.269399 -0.0519346 6.15298e-20)
(1.12282 0.0595489 1.32082e-21)
(0.239892 -0.0511196 -5.31995e-20)
(-0.0601786 0.0431563 -2.90349e-20)
(-0.0373713 0.0491899 7.59651e-20)
(0.229723 -0.244978 2.7685e-20)
(0.959893 0.0982575 3.18742e-22)
(1.15361 0.0680164 1.57671e-22)
(1.02404 -0.00771617 0)
(1.06976 -0.0689759 -2.25742e-20)
(1.26664 0.0154636 -9.10875e-21)
(-0.0106138 -0.0157768 9.4495e-20)
(0.978359 -0.0719977 -6.06611e-20)
(0.735938 0.218926 9.79375e-21)
(1.15096 0.0694897 -1.53124e-21)
(0.0804623 -0.0296934 3.41237e-20)
(0.253305 -0.0364757 -4.833e-20)
(0.426577 -0.0388466 -5.58021e-20)
(1.28916 0.159985 -7.79794e-21)
(-0.0538035 -0.0385407 0)
(1.05919 0.234702 -4.2088e-23)
(1.03526 -0.0580144 2.72986e-20)
(1.11086 -0.0499276 -2.63204e-20)
(1.23399 0.00371272 0)
(1.51221 -0.220913 7.10071e-20)
(1.14525 0.0513912 -2.09863e-21)
(-0.0160386 -0.033023 -3.23625e-20)
(0.265116 0.101103 0)
(0.895148 0.0336336 -1.02201e-21)
(1.13988 0.0170144 2.0133e-22)
(0.883904 -0.216136 2.29606e-20)
(1.16574 0.00721258 -2.98244e-22)
(1.11946 0.0514603 0)
(1.14811 -0.166542 -1.48569e-20)
(-0.104439 -0.001345 -6.45149e-20)
(1.30007 -0.0386253 1.63628e-20)
(1.10152 0.175219 -8.6962e-21)
(1.0881 0.0606498 5.99624e-21)
(-0.0429592 -0.0599036 1.53714e-20)
(-0.0213679 0.0341353 -5.82894e-20)
(0.584586 0.0749421 0)
(0.688583 0.0199161 0)
(1.154 0.102441 -1.81955e-20)
(1.05152 0.0695473 1.33472e-20)
(1.0978 0.0198548 0)
(0.470999 0.0750973 3.98027e-20)
(0.705734 0.0937896 -1.02218e-20)
(1.09984 0.111759 0)
(1.08105 0.0476182 0)
(1.29405 0.0166259 0)
(1.24582 0.00886268 0)
(1.12459 0.00944138 3.93379e-21)
(-0.042719 0.0431338 3.17105e-20)
(1.28305 0.054037 3.27559e-21)
(1.40528 -0.179577 -8.00101e-20)
(1.19007 -0.0167488 -6.19557e-21)
(0.057021 0.139262 0)
(1.12439 0.0299355 0)
(0.611588 -0.015153 -2.32084e-22)
(0.521276 0.00977777 -5.45101e-20)
(0.0651932 0.0373725 4.46068e-20)
(0.923976 0.0211581 6.62494e-22)
(0.747076 -0.272519 0)
(0.6853 -0.0892412 0)
(1.17271 -0.0477592 0)
(0.540073 0.514552 1.85072e-20)
(-0.0146383 0.0257646 -2.78148e-20)
(1.07581 0.0243814 -5.4987e-21)
(-0.0229267 -0.0407265 6.18682e-20)
(1.12149 -0.05447 2.08121e-21)
(1.17489 0.317925 4.41046e-20)
(1.11079 -0.0873811 8.96464e-21)
(0.367952 0.0188068 9.19852e-20)
(1.09377 0.179517 2.95333e-21)
(1.04599 0.0405009 0)
(0.554746 0.270426 0)
(0.856933 0.0994076 4.91289e-21)
(-0.203703 0.131098 0)
(0.608752 0.0289134 2.20872e-21)
(0.604169 -0.417101 -3.00102e-21)
(0.231437 0.0494337 -1.06028e-19)
(1.12512 -0.225085 3.39615e-20)
(1.03898 0.36761 1.04873e-20)
(0.980133 0.0197052 0)
(1.2632 -0.0363293 -4.82431e-23)
(0.629191 0.0152464 0)
(0.984377 -0.0188302 -6.96234e-22)
(0.44884 -0.0160336 0)
(0.712745 0.133224 0)
(1.00112 -0.022575 -3.96625e-21)
(1.43674 0.180759 -1.28015e-20)
(1.0982 -0.0531461 3.04927e-21)
(0.521888 -0.490945 0)
(1.13334 -0.154213 2.66553e-21)
(0.805236 0.38244 7.22203e-20)
(-0.0429299 0.0198092 1.06831e-21)
(1.22599 -0.0265769 1.02887e-20)
(1.22297 0.0321433 -1.04617e-20)
(1.1495 -0.106596 6.68395e-22)
(0.793937 0.0117346 -4.30852e-21)
(0.0563424 0.0191096 3.41329e-20)
(-0.0181607 -0.00382547 -5.28417e-20)
(-0.190573 0.145726 0)
(-0.161786 0.248444 0)
(1.18497 -0.613095 3.14949e-20)
(1.15001 -0.0271328 3.3077e-22)
(0.889719 -0.464446 -4.19852e-20)
(1.09534 0.224041 -1.44894e-21)
(1.36204 0.206162 3.08039e-20)
(0.602079 0.42026 0)
(0.246904 0.418104 -1.16788e-19)
(0.596734 0.486172 0)
(0.0368469 0.128816 0)
(1.12045 -0.47572 0)
(-0.0449998 0.0532793 -1.43102e-22)
(1.19723 -0.0247599 0)
(0.834061 -0.0308368 -2.24723e-20)
(0.59596 0.69604 2.04106e-20)
(1.32518 0.10432 1.30647e-20)
(-0.0388213 -0.0750958 -1.09119e-19)
(0.696614 0.0245151 -3.14766e-20)
(0.445218 0.143762 -1.27991e-20)
(1.20933 0.0937457 0)
(1.35945 0.361767 3.07959e-20)
(1.22309 0.570514 4.44595e-21)
(0.146729 -0.0130717 -1.99949e-20)
(0.985257 0.143374 2.85585e-20)
(0.936862 -0.0298859 5.38168e-22)
(0.90006 0.0227503 -1.6785e-22)
(0.00143113 -0.0308745 0)
(0.644954 -0.648581 -3.11403e-20)
(0.613807 0.205733 0)
(0.0571426 -0.0536766 0)
(-0.0456671 0.0557053 0)
(-0.018039 -0.0596664 -4.14243e-20)
(1.24543 -0.00817359 -1.1829e-20)
(-0.0312625 0.0606535 0)
(-0.0306957 0.0532187 0)
(1.45656 0.125661 -6.85015e-20)
(-0.0375575 -0.0736824 4.94023e-20)
(0.115194 0.237294 -1.0212e-19)
(0.372176 0.0184957 0)
(0.169062 -0.27456 8.25491e-20)
(1.09293 -0.237444 0)
(0.994204 -0.28194 0)
(-0.0036982 -0.0644291 1.03049e-19)
(1.15195 0.0371874 -1.05797e-22)
(1.12539 0.347037 2.97685e-20)
(0.25237 0.0287918 4.33237e-20)
(0.40257 -0.51523 -3.91203e-20)
(1.28231 0.0892905 0)
(1.20653 0.203142 2.0167e-20)
(1.21136 0.217055 -2.47745e-20)
(0.102658 0.0925626 -2.36758e-20)
(-0.0624946 0.0383464 0)
(1.06916 -0.058425 -1.95883e-20)
(1.10094 -0.221025 -1.6715e-20)
(0.581871 -0.399749 0)
(1.09635 -0.148008 -2.69243e-20)
(-0.0522124 0.230006 0)
(0.574245 0.0527121 0)
(1.39958 -0.0191198 2.65864e-20)
(0.975769 0.032256 3.1573e-22)
(1.07901 0.749179 -1.82344e-20)
(0.224495 -0.376117 1.34894e-19)
(1.09442 0.0431695 -2.10477e-22)
(1.21093 0.0775074 -7.10817e-22)
(-0.0461766 0.0751928 2.76676e-20)
(0.787165 0.73513 3.04296e-20)
(1.34538 -0.364874 -1.35386e-20)
(-0.192225 0.0508456 5.08684e-20)
(1.15578 0.0360235 0)
(0.255248 0.0674681 -8.24099e-21)
(0.897775 -0.633926 2.70685e-21)
(0.89802 0.642251 -1.67989e-20)
(0.558106 -0.031323 -6.32887e-20)
(1.14498 -0.00782577 -3.46445e-21)
(1.07486 -0.0844452 7.5268e-21)
(1.17707 0.0549532 -6.96858e-22)
(1.10717 0.12256 5.00867e-21)
(1.13176 -0.128043 0)
(0.89345 0.11457 1.29212e-20)
(0.881736 0.458784 0)
(1.35772 0.103878 5.84335e-21)
(1.17105 0.115895 8.76957e-22)
(0.743699 0.263775 0)
(0.509934 0.109986 1.01129e-19)
(0.894425 0.716131 -7.97628e-22)
(1.07801 0.293364 -2.28618e-20)
(1.04261 -0.0108442 1.29024e-20)
(0.416536 0.497335 0)
(1.29327 -0.469454 0)
(0.755458 -0.0293393 6.31544e-21)
(1.26058 0.506902 0)
(-0.0277522 0.0529854 -3.82343e-20)
(1.28093 -0.413086 -5.4179e-21)
(1.16668 0.514823 0)
(0.45315 0.223162 1.71286e-19)
(1.1162 0.318212 -1.11826e-19)
(0.812206 -0.635473 -2.69918e-20)
(1.18214 0.0483501 -1.69244e-21)
(0.904269 0.153005 7.46767e-20)
(1.08894 0.171052 5.58151e-20)
(1.07057 0.707116 1.38363e-21)
(0.901385 -0.434321 6.70459e-20)
(1.4372 0.192561 3.5841e-20)
(1.13145 0.00734471 -7.73814e-22)
(0.0108527 -0.0503503 9.33541e-20)
(1.0801 -0.699135 2.36198e-20)
(0.868434 -0.715829 5.60774e-20)
(0.25043 -0.325932 0)
(0.971887 -0.146641 7.50822e-20)
(0.363164 0.314111 -4.44503e-19)
(-0.119269 0.15578 2.02938e-20)
(0.220121 0.0446798 1.97145e-20)
(0.684909 -0.0563549 -7.44691e-20)
(1.08048 0.533928 0)
(0.990339 0.223806 8.37057e-20)
(1.08768 0.0307501 3.77072e-21)
(0.912134 0.446789 -9.31129e-20)
(0.779569 -0.722157 -9.00332e-21)
(0.929717 0.0246474 -5.00339e-20)
(0.979147 0.494303 0)
(1.24528 0.0933668 -1.10404e-20)
(1.3781 -0.511218 1.27735e-20)
(1.22484 -0.337642 9.29493e-21)
(-0.198229 0.175763 3.41843e-20)
(0.194561 0.0111015 -1.83775e-20)
(0.972851 -0.117277 -5.93226e-20)
(0.354339 0.530398 0)
(0.917878 0.0183367 3.98663e-20)
(1.15431 0.638873 7.37053e-20)
(-0.0985733 0.0160421 1.38072e-19)
(-0.0580671 0.0738958 -2.30855e-20)
(-0.0882259 -0.0196011 3.92078e-20)
(1.09879 0.0238261 -5.09173e-21)
(1.13153 -0.459339 0)
(1.06353 -0.730447 -4.53184e-20)
(0.699672 0.353641 0)
(0.00733093 0.0234583 -1.00988e-19)
(1.10482 0.0410948 2.94303e-21)
(-0.037108 -0.0473424 -2.83981e-20)
(1.04814 0.0572429 -1.23039e-20)
(0.0949899 0.0291358 4.95853e-20)
(0.829711 0.129232 0)
(1.34716 -0.0466852 3.59469e-20)
(0.0389374 0.0562008 -2.23839e-20)
(-0.190238 0.196969 -4.06067e-20)
(-0.227211 0.20892 0)
(0.0897275 -0.0149217 0)
(1.30673 -0.0340078 -9.9198e-21)
(0.387927 -0.00848382 1.5374e-19)
(1.26393 -0.723032 -1.92973e-20)
(0.968287 -0.0652867 4.30996e-20)
(1.07208 0.253196 -3.24438e-20)
(0.36632 -0.552566 1.42678e-19)
(1.54755 0.29131 -3.09938e-20)
(0.0743405 -0.0530376 3.62806e-20)
(0.208921 0.311997 1.98151e-19)
(0.107988 -0.0309471 -1.35657e-19)
(0.940509 -0.489624 -4.43729e-20)
(1.45034 0.394446 3.14782e-20)
(0.564449 -0.672296 5.04613e-20)
(1.10621 -0.084253 -7.5406e-21)
(0.182414 0.0989049 5.44679e-20)
(1.16986 0.294705 -4.37966e-20)
(0.66321 0.644617 -4.14951e-20)
(1.33573 -0.620569 0)
(1.41169 0.524072 3.14551e-20)
(1.05048 -0.525354 -1.2418e-20)
(1.38611 0.610881 -9.11443e-20)
(1.19324 0.0143464 0)
(-0.0514856 0.076015 0)
(1.25131 0.7338 0)
(1.25692 0.0245249 -3.24187e-21)
(0.740051 -0.298678 -2.10556e-19)
(0.477164 -0.0783552 0)
(-0.0514671 0.0880978 -2.34446e-20)
(1.02194 -0.245303 1.01923e-19)
(-0.249156 0.110362 0)
(0.321879 0.0312864 1.24163e-20)
(1.15827 0.0283535 0)
(1.4064 0.282985 0)
(1.20325 0.0454091 1.81242e-21)
(0.360995 -0.286795 0)
(1.01241 0.15183 3.95478e-20)
(1.30082 0.292163 0)
(-0.0724307 0.0885067 9.77897e-23)
(0.81103 -0.393076 0)
(1.51596 0.347905 -4.69045e-20)
(1.24035 0.374153 3.07006e-21)
(0.842733 0.651587 -1.00595e-20)
(1.01112 0.159048 -9.23275e-20)
(0.968533 -0.202507 -4.94819e-20)
(1.44933 0.30258 2.76399e-20)
(0.988828 0.118992 0)
(0.564257 -0.0674705 0)
)
;

boundaryField
{
    FrontBack
    {
        type            empty;
    }
    Top
    {
        type            noSlip;
    }
    In
    {
        type            fixedValue;
        value           uniform (1 0 0);
    }
    Bottom
    {
        type            noSlip;
    }
    Out
    {
        type            zeroGradient;
    }
    circle
    {
        type            noSlip;
    }
}


// ************************************************************************* //
