/*--------------------------------*- C++ -*----------------------------------*\
| =========                 |                                                 |
| \\      /  F ield         | OpenFOAM: The Open Source CFD Toolbox           |
|  \\    /   O peration     | Version:  2412                                  |
|   \\  /    A nd           | Website:  www.openfoam.com                      |
|    \\/     M anipulation  |                                                 |
\*---------------------------------------------------------------------------*/
FoamFile
{
    version     2.0;
    format      ascii;
    arch        "LSB;label=32;scalar=64";
    class       volScalarField;
    location    "49.3";
    object      p;
}
// * * * * * * * * * * * * * * * * * * * * * * * * * * * * * * * * * * * * * //

dimensions      [0 2 -2 0 0 0 0];

internalField   nonuniform List<scalar> 
808
(
0.115882
0.0499332
0.0616398
0.114541
-0.320154
0.0449982
0.0358105
0.0372021
-0.1858
-0.0313067
0.0527969
-0.214973
0.037027
0.039289
-0.139258
0.0380345
-0.137369
0.034984
0.0704268
0.0263112
0.0717266
0.395694
0.109683
-0.00503586
0.473873
-0.124044
-0.0992898
0.0176188
0.0270868
0.0496737
0.0252098
0.0288298
0.0445589
0.0344526
-0.0839604
0.618682
0.0500067
0.0603952
0.0432884
0.0376926
-0.0502863
-0.0900787
0.071697
0.0561652
-0.180865
0.126097
0.0486841
-0.0363765
0.0446695
-0.226413
0.046188
0.0102694
0.0824553
0.0196725
-0.0346877
0.0441366
0.0139407
0.0756155
-0.0389887
0.0368391
-0.320765
-0.0342437
0.042805
-0.183066
0.0576945
0.0822493
-0.352683
0.0392873
0.088993
-0.379699
0.049146
-0.431441
0.0403913
0.0416476
0.140993
0.0667933
0.0297479
-0.0207442
0.0453678
0.342066
-0.0709804
0.0429071
0.0589069
0.250037
0.0704282
0.0123084
-0.477065
-0.0543666
0.0428833
-0.114985
0.0430048
-0.128728
0.280243
0.189683
0.0746075
-0.282815
0.0332063
-0.108191
-0.12413
-0.270791
0.0528423
0.0316526
0.0505925
0.022947
-0.0155136
0.0965998
-0.22814
-0.0186001
0.0405144
-0.0187171
0.00305314
0.355943
0.0459049
0.0273362
0.0423106
0.444649
0.0378445
-0.36489
0.0471206
0.0628311
-0.211334
0.0729614
0.0378887
0.0607208
0.147204
-0.00230574
0.093483
-0.00738443
0.0172106
0.10303
-0.436136
0.0369843
-0.0311536
0.160515
0.0449589
0.0389071
0.0663896
0.0307564
0.0460167
0.0315958
-0.221182
0.0440539
0.0779713
0.047677
0.0185812
0.0131428
0.0941486
0.147362
-0.119173
-0.012346
0.0463778
0.366322
0.0463397
0.546728
-0.27789
-0.0422454
0.0462512
-0.179319
0.0942015
-0.0603183
-0.421958
-0.240429
-0.421096
0.0410356
0.0970693
0.0489202
0.0410909
-0.463832
0.0412907
0.0549241
0.0486712
0.192189
0.0308578
0.0783863
0.0487727
0.0681086
0.106461
-0.195786
0.0482006
-0.471148
0.0555298
-0.0801341
0.0370826
0.243232
-0.20162
0.153604
0.0567609
-0.13011
0.0610493
-0.0924682
-0.246522
-0.0374011
0.0466851
0.0713111
0.0388346
-0.182909
0.0484932
0.0433403
0.0126825
0.117036
0.0690842
0.034928
0.046477
-0.452376
0.385216
-0.192083
-0.411281
0.0225868
0.0420424
0.0451365
-0.0203733
-0.534896
-0.368927
0.047575
-0.0049068
0.0400601
-0.448244
0.00998626
-0.0166344
0.0105308
-0.0124096
-0.0374551
0.044703
0.0419634
0.0130198
0.0472136
0.161783
-0.36634
-0.0423626
0.0291194
0.153049
0.0294374
0.0295542
0.025409
-0.0664653
0.0164051
0.0164719
9.45433e-05
-0.0200166
0.0275153
-0.00773129
0.0124937
-0.0108085
0.0120758
0.00924432
-0.00721968
0.0181179
0.0217491
-0.022681
0.0450969
-0.434843
0.0122382
0.0422626
0.000604784
0.0355556
0.0400281
0.0409129
-0.0158263
0.0350026
0.161344
-0.0222362
0.0351791
0.0338122
-0.111241
0.0672438
-0.000893479
-0.0235386
0.0454728
-0.0270577
0.0154039
-0.0235848
-0.534564
0.301918
0.0532626
-0.0802142
0.0276917
0.0517476
0.0426422
-0.180503
0.237168
0.0235603
0.0189431
-0.0466419
0.0856736
-0.226299
0.0397268
0.0393094
-0.0956729
0.00526699
0.0504002
0.0441628
0.0422636
-0.0285456
-0.0124883
-0.045575
0.0417485
-0.00805618
0.0960149
-0.00903971
0.00045501
-0.020253
0.0350016
-0.0226334
0.0461706
-0.636244
-0.0433052
0.0188917
-0.090915
-0.215037
-0.276024
0.0219934
0.0354621
-0.420745
0.118184
0.139821
0.0542126
0.0462061
-0.0518447
0.0130814
-0.306485
0.0591066
-0.00528089
0.062897
0.0555378
-0.00304663
0.0553208
-0.0580247
0.0295137
0.0174946
-0.336186
0.0375017
0.0436955
-0.0791724
-0.113586
0.0485042
0.259607
0.0358029
-0.175767
0.539268
0.0547115
0.0120516
0.0563836
-0.0727986
0.00021755
-0.0269562
0.0629557
0.0204494
0.0526348
-0.0169962
-0.173819
-0.0429684
0.142387
0.023639
-0.305795
-0.424058
-0.447148
-0.44127
-0.00905412
0.0429946
0.0398826
0.0413752
0.00824251
0.021935
0.0501908
0.00516012
-0.630612
0.0399681
0.0312193
0.0616159
0.086028
0.027164
-0.00108782
0.106261
-0.494859
0.0145045
0.0497472
-0.0282737
0.0909045
-0.360302
0.0329993
-0.249175
0.0263306
0.0489672
0.0672569
0.0445899
0.0561318
-0.0796121
-0.468229
0.0357336
0.0459557
-0.0864432
0.067466
0.0365595
0.0382608
0.0238932
0.0331967
-0.11986
0.0127812
0.0382518
0.0471193
-0.126345
-0.30227
0.10333
-0.076344
0.043817
0.0105165
0.399541
-0.173647
0.00251185
-0.022792
0.0370556
0.0188229
0.056619
0.0679907
0.00321449
-0.01543
-0.00660456
0.0216607
-0.00197328
-0.00561566
-0.0123983
-0.00876493
0.0369299
0.105064
0.0474962
0.0301
0.0217086
0.0651208
0.0366194
0.0614482
-0.483058
0.0617767
0.0610792
0.00182033
-0.190364
-0.347968
0.0156644
-0.145642
0.055841
0.050891
-0.426054
-0.306805
0.28064
-0.442856
-0.576003
0.0269214
-0.0666117
0.0592638
-0.301905
0.343224
-0.00973177
-0.39047
0.0380427
0.0873881
0.537894
0.0389002
-0.00681999
0.0905572
-0.0527105
0.0234906
-0.394106
-0.191202
0.0205199
0.0584945
-0.0118536
-0.350389
-0.437428
-0.132837
0.0562819
0.044821
0.129128
0.0117282
-0.0137943
0.115392
0.000490619
0.0430281
-0.128408
-0.229198
0.0845591
0.0462371
0.0449366
0.0517136
0.0757656
-0.00139212
0.0292648
-0.602232
0.434825
-0.137335
-0.349475
0.0260608
-0.00286943
-0.312038
-0.283616
0.109824
-0.456168
0.0673285
0.861923
0.0464219
-0.483007
0.0376363
0.0946732
0.0193559
-0.574647
-0.287737
-0.419206
0.02037
0.0339478
-0.488483
0.0301671
0.0177274
0.145254
-0.464419
0.0701198
-0.633556
-0.260935
-0.32068
0.0619154
0.0212335
0.0382597
0.142547
0.111008
0.0433763
-0.354323
0.285363
-0.0618266
-0.00553094
-0.574518
-0.632043
-0.466532
-0.00411526
-0.472998
-0.0556699
0.10306
0.0776413
-0.047616
-0.310931
0.0267582
-0.402063
-0.178553
0.0165052
0.0334466
-0.43461
0.031487
0.0759741
-0.502912
-0.463852
-0.0633987
0.140579
0.0470183
-0.448206
-0.249411
-0.18213
0.0822042
0.0834854
0.136915
0.016192
-0.342101
-0.222198
0.141221
0.0466894
0.0966417
0.0563953
0.0578385
-0.268215
0.0400975
-0.354796
0.0579677
-0.28102
0.137808
0.00536075
-0.299153
-0.387001
0.00391521
-0.590196
-0.594132
0.0729539
-0.0102444
-0.268675
0.0311727
-0.378978
0.0319551
0.123675
0.0503704
-0.32184
-0.0210388
0.164683
-0.380329
-0.0184168
-0.365189
0.0423707
-0.418652
-0.438121
0.0631949
0.309779
0.439226
-0.00658196
0.00700827
0.00556499
-0.469729
0.657562
0.0524045
-0.126907
0.0351648
-0.154967
0.0588725
0.515267
-0.306676
-0.00759852
-0.000827952
0.0393351
0.0417449
-0.384475
-0.325137
-0.388258
-0.264902
-0.371324
0.0340878
-0.465274
-0.0730695
-0.190666
-0.243757
0.557631
0.624878
-0.166214
0.0559591
-0.28552
-0.00218443
0.0802976
0.455342
0.107214
-0.438953
-0.0309789
-0.436137
0.0250315
-0.136184
0.0331121
-0.252441
-0.1781
0.00637115
0.00803598
-0.439588
0.404182
0.696961
-0.489824
-0.246459
-0.471835
-0.0217655
-0.247234
-0.256418
-0.0931394
-0.4393
0.789422
-0.276199
0.722218
-0.536728
0.299005
-0.442744
0.0465495
0.216397
-0.429937
0.157269
-0.173369
-0.239055
-0.26918
0.890286
-0.308183
0.185676
0.112146
0.620973
0.100706
-0.233345
-0.18018
-0.0521547
0.0265698
0.139271
0.477672
0.0214938
0.0265571
-0.255283
0.174968
-0.194382
-0.2014
0.0545293
-0.195013
-0.251366
-0.0924859
-0.502325
0.0464008
0.0907515
0.0380349
0.119045
0.0823559
-0.260819
-0.288148
0.0456883
0.0572744
-0.393572
-0.440471
0.228279
0.232176
0.0871975
0.704237
-0.153513
-0.351648
-0.31538
-0.234428
-0.126307
0.131785
0.784271
-0.379592
0.328407
0.0367902
-0.355996
0.194024
-0.0166108
0.345224
-0.0841518
0.0557761
-0.452286
-0.160714
0.132572
0.802729
0.315122
0.788571
-0.475623
-0.216791
-0.549367
0.214166
0.301346
0.101074
0.420155
0.0646432
0.496545
0.317475
-0.0225166
-0.276378
-0.0249933
-0.291662
0.894017
0.398849
0.689672
0.519319
-0.202072
-0.484146
-0.269768
-0.378896
0.0855815
-0.5173
0.0358789
0.625953
-0.532499
0.014579
-0.383868
0.222054
-0.268065
-0.299009
-0.0749138
-0.208252
-0.288893
-0.358833
-0.462724
-0.0592425
-0.55637
-0.219706
-0.40285
0.188325
0.624859
-0.148017
-0.452165
0.854527
-0.445592
0.242663
-0.170841
0.335782
0.0750488
-0.495645
-0.325937
0.488047
-0.375058
-0.255363
0.135388
-0.211223
0.0346465
-0.239513
-0.0590362
0.0346766
0.549
0.78208
-0.247497
0.200317
-0.273524
0.833496
0.0343704
-0.243797
0.0399
0.753065
0.244705
-0.252203
-0.248812
0.423926
-0.146607
0.0863316
0.39644
0.28751
0.270768
-0.1832
-0.19891
0.691618
)
;

boundaryField
{
    FrontBack
    {
        type            empty;
    }
    Top
    {
        type            zeroGradient;
    }
    In
    {
        type            zeroGradient;
    }
    Bottom
    {
        type            zeroGradient;
    }
    Out
    {
        type            fixedValue;
        value           uniform 0;
    }
    circle
    {
        type            zeroGradient;
    }
}


// ************************************************************************* //
