/*--------------------------------*- C++ -*----------------------------------*\
| =========                 |                                                 |
| \\      /  F ield         | OpenFOAM: The Open Source CFD Toolbox           |
|  \\    /   O peration     | Version:  2412                                  |
|   \\  /    A nd           | Website:  www.openfoam.com                      |
|    \\/     M anipulation  |                                                 |
\*---------------------------------------------------------------------------*/
FoamFile
{
    version     2.0;
    format      ascii;
    arch        "LSB;label=32;scalar=64";
    class       volScalarField;
    location    "35.1";
    object      p;
}
// * * * * * * * * * * * * * * * * * * * * * * * * * * * * * * * * * * * * * //

dimensions      [0 2 -2 0 0 0 0];

internalField   nonuniform List<scalar> 
808
(
0.13488
0.0253026
-0.0140911
0.134746
-0.174699
0.028001
0.0190726
0.0302886
-0.0803427
0.00136703
0.0259809
-0.0947625
0.0266965
0.0220685
-0.378094
0.0262109
-0.408707
0.0261709
0.0101761
0.0239266
-0.0028048
0.373177
0.0644086
0.0192366
0.449795
-0.168345
-0.0240729
0.00703075
0.0254693
0.0182478
0.0212727
0.035325
0.0257178
0.015897
-0.0518739
0.635198
0.0202322
0.0224509
0.0320899
0.0203234
-0.0249673
-0.0264065
0.0347746
0.0270485
-0.145201
0.0806785
0.0242486
0.0427891
0.0250875
-0.115901
0.0198931
0.0393949
0.0408995
0.0114264
-0.112439
0.0222798
0.00879382
0.0222513
0.00695579
0.0185109
-0.296558
0.0339382
0.0318603
-0.132466
0.0246014
0.0442961
-0.185607
0.0234601
0.01417
-0.225161
0.0311607
-0.253937
0.0335899
0.0266148
0.21332
0.0106918
0.00373739
-0.107242
0.0175017
0.299978
-0.12251
0.0225487
0.0381263
0.291282
0.0124288
-0.0154789
-0.295623
-0.136696
0.0414937
-0.229583
0.0559768
-0.0654203
0.245843
0.149432
0.0370147
-0.163777
0.0195887
-0.104154
-0.072887
-0.150152
0.0205115
0.0137225
0.0548486
-0.0114426
-0.0845287
0.052615
-0.161862
0.0263529
0.021765
0.062143
-0.0668244
0.323011
0.0285344
0.0568525
0.0245532
0.459502
0.0264773
-0.207025
0.0203057
0.0726608
-0.206898
0.0374098
0.0262927
0.0746349
0.102541
-0.0787896
0.127359
0.0566559
0.0545606
0.0624879
-0.171187
0.0262572
-0.0251177
0.110854
0.0243608
0.0218538
0.0206485
0.00680995
0.0318409
0.0232483
-0.359991
0.0652794
-0.0245628
0.0290408
-0.0558746
0.0977578
0.112444
0.173142
0.054476
0.0368659
0.0273059
0.333604
0.0446632
0.533448
-0.331095
-0.12091
0.0231956
-0.204585
0.00249398
-0.133567
-0.25748
-0.347252
-0.199707
0.0322988
0.0574694
0.0198635
0.0358278
-0.198845
0.0274131
0.0255926
0.0548355
0.14861
0.0702834
0.151306
0.0217084
0.0872119
0.0643297
-0.104948
0.0328333
-0.280344
0.0274122
-0.176918
0.0304113
0.281145
-0.391985
0.110367
0.0222134
-0.114824
0.0249528
-0.0671669
-0.344245
-0.0474783
0.0206267
0.101693
0.0304713
-0.356881
0.0204149
0.0359349
0.0094629
0.0692758
0.0825964
0.0301803
0.0267313
-0.25468
0.37361
-0.327909
-0.261601
0.015877
-0.0101197
0.0285938
-0.000759495
-0.329487
-0.166286
0.0204208
-0.0372299
0.0286651
-0.258463
-0.0700292
-0.0067233
0.0443899
-0.00978246
-0.121136
0.031899
0.0319094
0.00518621
0.0275758
0.118005
-0.191167
0.0833897
0.0220139
0.109356
0.0263173
0.0297332
0.0172701
-0.100727
-0.00105583
0.0145319
-0.000408018
-0.0134863
0.0160439
-0.00640064
-0.00968063
0.008349
0.0104892
-0.00401678
0.0116688
-0.0146223
-0.00855602
0.0145408
0.0648443
-0.258246
0.00289152
0.0101682
-0.109224
0.0182308
0.0200498
0.0353951
0.00358534
0.0287295
0.115259
0.0938647
-0.00359181
0.0119315
0.059454
0.0142711
0.022237
0.0482174
0.0692003
0.0467551
-0.0260574
-0.00668995
-0.32899
0.265716
0.00336573
0.029569
0.0249468
-0.000727663
0.0158304
-0.149031
0.301242
0.0444064
-0.0253163
0.0262761
0.102075
-0.0552791
0.0223679
0.00700801
0.0631743
0.0191487
0.0186176
0.033166
0.0264284
0.0406845
0.0267588
0.0370761
0.0303082
-0.0455005
0.0476103
0.0815306
0.0494002
0.03623
0.0320317
0.0278376
0.00619532
-0.427774
-0.103686
-0.0462934
-0.00509727
-0.123869
-0.317328
0.05462
0.0303693
-0.264999
0.146172
0.175525
0.0250574
0.0236777
0.0621866
0.00573414
-0.165648
0.0372898
0.00785413
0.0264571
-0.0101007
-0.00313591
0.0355982
0.04338
0.017092
0.0195552
-0.289721
-0.0914785
0.0244717
-0.0155345
0.044373
0.0146752
0.223028
0.0201732
-0.113405
0.556479
-0.0057838
0.00512861
0.0311162
0.000506068
-0.0681251
0.0558815
0.0342527
0.0289641
0.0554374
-0.0254146
-0.30476
0.0541484
0.0964463
-0.0522502
-0.297734
-0.257546
-0.2082
-0.25236
0.00982618
0.0363552
0.0310819
0.0278269
-0.00376633
0.012065
0.0453451
0.0123663
-0.423702
-0.00789024
0.0534824
0.0125748
-0.268511
-0.058024
1.26346e-05
0.129818
-0.250758
0.00254118
-0.0397434
0.0201423
-0.0918742
-0.27829
0.0400494
-0.359375
0.0248713
-0.0576847
0.0110066
0.0196395
0.0250513
0.0716031
-0.271086
0.0178537
0.0249635
0.0193366
0.0127965
0.00836064
0.0460299
0.0196148
0.00730561
0.0422685
0.0635552
0.0257609
0.0197752
-0.205017
-0.0846402
0.0427617
0.0369345
-0.120091
0.00480333
0.443639
-0.242997
-0.00855459
-0.241906
0.0305942
0.0383837
0.0293495
-0.0112066
0.0151176
-0.00892194
-0.0464951
0.0188897
-0.000602501
-0.00504091
-0.0096518
-0.00968852
0.0207356
0.134528
-0.00964877
0.017782
0.0166207
-0.000294497
-0.0684824
0.0289324
-0.305957
0.0562128
0.0716397
-0.0218436
-0.224508
-0.265263
0.00914079
-0.0389875
-0.0677922
0.0365845
-0.0428191
-0.162446
0.191616
-0.24671
-0.375999
-0.304266
-0.139653
-0.10413
-0.210462
0.36141
0.0124168
-0.284588
0.0185714
-0.025392
0.601671
0.018041
0.0393852
0.0244146
0.0776394
0.00505239
-0.289324
-0.372372
0.0763259
0.0822776
0.0477407
-0.201271
-0.222157
-0.284495
0.0199784
-0.000915305
0.0864336
-0.000822089
0.0235951
0.0728944
0.0877097
0.0399335
-0.134334
-0.35067
0.0207985
-0.0974956
0.0342042
-0.000283271
0.0966199
-0.0586682
-0.0274112
-0.387472
0.466327
-0.17685
-0.288706
-0.019542
-0.0503165
-0.31016
-0.309734
0.139114
-0.266397
-0.221494
0.873802
0.0204748
-0.290157
0.0191402
-0.159558
-0.000616288
-0.375887
-0.349787
-0.229208
0.017405
-0.235059
-0.292171
-0.0114389
-0.0133806
0.0772714
-0.22517
0.021114
-0.420964
-0.373191
-0.436314
-0.284272
-0.0753389
0.0201299
0.0994519
0.146733
-0.0358449
-0.274829
0.323652
0.0741911
0.0301266
-0.363659
-0.418578
-0.250344
0.0145761
-0.280874
0.117935
0.000953625
0.0097505
-0.188119
-0.164436
0.0149774
-0.260933
-0.368226
0.0118075
0.0066628
-0.0542376
-0.00584516
0.0252218
-0.307864
-0.265704
-0.0581917
0.085459
0.0398368
-0.262296
-0.343327
-0.149234
-0.328459
0.0251606
0.0908439
0.0177355
-0.16115
-0.346518
0.0884842
0.0451633
-0.234791
0.0253601
0.0310337
-0.379908
0.012566
-0.192726
0.0252604
-0.415254
-0.0453355
-0.00126224
-0.414843
-0.508453
0.0076037
-0.392238
-0.38251
0.0190013
-0.114891
-0.322501
0.00961335
-0.26504
0.037723
0.05978
0.0862
-0.351636
0.11135
-0.0629101
-0.502315
-0.0238495
-0.305849
0.0273053
-0.240756
-0.562242
0.128441
0.255852
0.451212
-0.00218684
0.00779566
-0.000784875
-0.27256
0.646274
0.0226959
-0.262553
0.0407326
-0.00707378
0.107326
0.474501
-0.418787
-0.0277392
-0.0404546
0.0407346
0.020232
-0.504978
-0.285212
-0.274467
-0.39876
-0.209369
0.0131118
-0.284375
0.0862803
-0.311794
-0.359525
0.48683
0.574574
-0.417854
0.149537
-0.314637
-0.00240763
-0.184104
0.378913
-0.12815
-0.259112
-0.109469
-0.560505
-0.032843
-0.232111
-0.0511293
-0.357197
-0.329695
0.00168373
0.00826332
-0.259836
0.483408
0.67205
-0.22179
-0.352685
-0.259433
-0.0505067
-0.350223
-0.33385
-0.223802
-0.255031
0.740137
-0.384556
0.768958
-0.33916
0.35194
-0.237382
0.000290332
0.157828
-0.552334
0.272133
-0.332139
-0.356388
-0.383726
0.869742
-0.302942
0.232944
0.177435
0.666254
0.148857
-0.463402
-0.354246
-0.134217
0.0148849
0.0547611
0.559092
0.0245386
-0.0324735
-0.334451
0.0821539
-0.0744623
-0.225648
0.0193875
-0.465544
-0.0954527
-0.198962
-0.298356
0.00803177
0.126542
0.00732204
0.0649942
0.135224
-0.379875
-0.403698
-0.058252
0.000810848
-0.514591
-0.563947
0.14588
0.18063
0.109447
0.655755
-0.0334169
-0.296587
-0.426876
-0.343072
-0.0157942
0.0575195
0.759955
-0.500516
0.411002
0.000214756
-0.479453
0.142227
-0.112954
0.414347
-0.187118
0.0154727
-0.271186
-0.023831
0.238483
0.832352
0.35284
0.751828
-0.256251
-0.348761
-0.344931
0.143127
0.260423
0.0561674
0.364764
0.186496
0.506678
0.25686
-0.0520479
-0.133745
0.0595822
-0.400116
0.888774
0.426439
0.63181
0.51689
-0.307653
-0.248623
-0.32581
-0.274723
0.0437552
-0.334764
0.147192
0.588603
-0.250648
0.0309774
-0.267878
0.177331
-0.369563
-0.416387
-0.117381
-0.340302
-0.388983
-0.301367
-0.277342
-0.0794414
-0.3453
-0.0783179
-0.191551
0.132261
0.684907
-0.258725
-0.25289
0.820163
-0.252382
0.317521
-0.271134
0.430179
0.11266
-0.202109
-0.445998
0.422029
-0.214167
-0.362542
0.225572
-0.315062
-0.0101523
-0.343079
-0.155288
0.0226568
0.59103
0.789499
-0.340959
0.251396
-0.308298
0.825523
0.00203755
-0.354861
-0.0146654
0.781193
0.199073
-0.362887
-0.333706
0.480397
-0.245174
0.0143748
0.328924
0.2476
0.318397
-0.290013
-0.39615
0.69645
)
;

boundaryField
{
    FrontBack
    {
        type            empty;
    }
    Top
    {
        type            zeroGradient;
    }
    In
    {
        type            zeroGradient;
    }
    Bottom
    {
        type            zeroGradient;
    }
    Out
    {
        type            fixedValue;
        value           uniform 0;
    }
    circle
    {
        type            zeroGradient;
    }
}


// ************************************************************************* //
