/*--------------------------------*- C++ -*----------------------------------*\
| =========                 |                                                 |
| \\      /  F ield         | OpenFOAM: The Open Source CFD Toolbox           |
|  \\    /   O peration     | Version:  2412                                  |
|   \\  /    A nd           | Website:  www.openfoam.com                      |
|    \\/     M anipulation  |                                                 |
\*---------------------------------------------------------------------------*/
FoamFile
{
    version     2.0;
    format      ascii;
    arch        "LSB;label=32;scalar=64";
    class       volScalarField;
    location    "32";
    object      p;
}
// * * * * * * * * * * * * * * * * * * * * * * * * * * * * * * * * * * * * * //

dimensions      [0 2 -2 0 0 0 0];

internalField   nonuniform List<scalar> 
808
(
0.117283
0.0256661
0.0708032
0.116936
-0.249451
0.0228376
0.0152973
0.0302368
-0.144893
-0.0320575
0.0633339
-0.163199
0.030613
0.0193375
-0.158891
0.027534
-0.151507
0.0184313
0.0554113
0.0118664
0.0514944
0.397832
0.0920348
-0.00455585
0.475694
-0.133885
-0.0707362
0.0106125
0.0138175
0.0295758
0.0148041
0.0195959
0.0316941
0.0133966
-0.0931815
0.633119
0.0250254
0.0367139
0.0255086
0.0274992
-0.0576453
-0.0691736
0.0512053
0.0400482
-0.159121
0.10905
0.0309267
-0.00152529
0.0266404
-0.18678
0.0205589
0.0131535
0.0626819
0.00458013
-0.0513913
0.024303
0.0130471
0.0562419
-0.031366
0.0183862
-0.303873
-0.00792437
0.0351092
-0.193556
0.0428831
0.0623323
-0.311282
0.0329624
0.062647
-0.300344
0.0314246
-0.336698
0.0253606
0.0251026
0.175784
0.0336291
0.00518697
-0.0304092
0.0230175
0.338373
-0.0899494
0.0248197
0.0435479
0.269595
0.0400419
-0.0136942
-0.380662
-0.0703877
0.0331097
-0.12655
0.0387089
-0.113798
0.275488
0.179309
0.0583092
-0.307089
0.030739
-0.109494
-0.120367
-0.272081
0.0236006
0.0111355
0.0419832
-0.0052617
-0.0730002
0.077701
-0.187908
-0.0270192
0.0218758
0.0166132
-0.0381101
0.355184
0.0282461
0.00510899
0.0320302
0.459013
0.0212755
-0.28825
0.0296506
0.0576097
-0.231293
0.0504564
0.0216051
0.0577828
0.134988
-0.0169178
0.102614
0.00614272
0.0247814
0.0859791
-0.371866
0.0310676
-0.0456043
0.151296
0.0298264
0.0206844
0.0459509
-0.00331263
0.0287896
0.0154733
-0.230606
0.04579
0.0791527
0.0307346
0.00351036
-0.00350009
0.0949807
0.155099
-0.19747
-0.0296208
0.029679
0.366078
0.034134
0.551983
-0.253337
-0.0592088
0.0240836
-0.169265
0.0587202
-0.0784865
-0.322549
-0.241165
-0.340451
0.0258128
0.0782881
0.0342067
0.0270704
-0.363925
0.0232178
0.0430243
0.0420269
0.182313
-0.00426167
0.112136
0.0247844
0.0690339
0.0897284
-0.170586
0.0305827
-0.364918
0.0426283
-0.0959369
0.0239313
0.261078
-0.14997
0.137441
0.0349746
-0.157695
0.0436351
-0.111401
-0.236505
-0.0613327
0.0297015
0.0785134
0.0243246
-0.202918
0.0296965
0.034114
0.0117819
0.102993
0.0662812
0.0307304
0.0337873
-0.336971
0.390806
-0.214534
-0.317885
0.010881
0.0629232
0.0289109
0.00772079
-0.41497
-0.370192
0.025702
0.0180766
0.0244457
-0.346458
-0.000801165
0.0145238
0.0218512
0.0128871
-0.0496662
0.0323224
0.0318757
0.00877639
0.0330004
0.146232
-0.394132
-0.0227333
0.0152007
0.138809
0.0173326
0.0193131
0.0136296
-0.075388
0.0430726
0.0154661
0.00785338
0.0107333
0.0241675
0.0101171
0.00757641
0.00573897
0.0097481
0.00502469
-0.00711982
0.0130409
0.0146872
-0.0140882
0.0157196
-0.333342
-0.00326177
0.000779395
-0.0716394
0.00524037
0.0207274
0.0313061
-0.00098845
0.0248098
0.151199
-0.0247295
0.0208944
0.0183888
0.0111074
0.0533177
0.0104772
-0.0261767
0.0230823
-0.0218835
0.0662228
0.014444
-0.41142
0.299013
0.0321891
-0.11229
0.0179261
0.0360943
0.0192595
-0.243886
0.268974
0.0111517
0.0594494
-0.0165731
0.0852826
-0.246402
0.017605
0.0322399
-0.0548259
-0.000433052
0.0625506
0.0278946
0.0259415
-0.00497592
0.00979513
-0.0340303
0.0268718
0.0565334
0.0801817
-0.0232491
-0.00887681
-0.0130844
0.0220733
0.00774869
0.0308621
-0.526465
-0.0646077
0.0824645
-0.0334781
-0.194597
-0.190152
-0.00935185
0.0275686
-0.323763
0.125816
0.153663
0.0289934
0.025035
-0.028523
0.00773257
-0.236113
0.037899
-0.00512392
0.0398396
0.0429889
0.0139349
0.0348667
-0.00146035
-0.00527774
0.0184089
-0.280405
0.0688369
0.0411091
0.00770073
-0.0347211
0.0244628
0.253849
0.00822212
-0.173195
0.554046
0.121785
0.00847682
0.0376437
-0.0923879
-0.017557
0.00861913
0.0375875
-0.00599601
0.0251309
-0.0455371
-0.191047
0.0282609
0.128426
-0.0118144
-0.262976
-0.327872
-0.392635
-0.332876
0.0422093
0.0295878
0.0123059
0.00615642
-0.0336105
0.0115207
0.0290657
-0.00030458
-0.519867
0.0874879
0.0186291
0.0486638
-0.10821
0.0598798
-0.0129432
0.111051
-0.374328
0.0588837
0.0125415
0.0337219
0.083912
-0.292237
0.0245765
-0.254371
0.00823114
0.0708561
0.0531516
0.02299
0.0452761
-0.168277
-0.355397
0.0110038
0.00874807
-0.217147
0.0218384
0.0140287
0.0203523
-0.00884695
0.0115213
-0.302806
0.0289788
0.0251977
0.0287227
-0.288671
-0.241331
0.0900858
-0.0228232
-0.0357724
-0.037733
0.422635
-0.127644
0.0201584
-0.101496
0.0219398
0.0321133
0.0322596
0.0747289
-0.0029588
0.0579145
-0.0389195
-0.0112374
-0.00487739
-0.0067577
-0.0120774
-0.010038
0.0331863
0.112331
1.4967e-06
0.025605
0.00988079
0.0507674
-0.00413241
0.0384037
-0.392882
-0.0186649
0.0316446
0.0326826
-0.154381
-0.325841
-0.0136806
-0.098032
0.031443
0.0306981
-0.309345
-0.262692
0.273933
-0.329294
-0.469906
-0.0861709
-0.127229
0.017424
-0.354583
0.357248
-0.0793261
-0.308609
0.0164522
0.112965
0.565186
0.0139122
0.003696
0.0786195
-0.0992868
-0.000605005
-0.315292
-0.2057
-0.00235187
0.0618729
-0.0367462
-0.27612
-0.333032
-0.148025
0.0256997
0.0445208
0.112927
-0.00731589
-0.0738564
0.0996602
-0.0346337
0.0232369
-0.17734
-0.24659
0.0174963
-0.00271225
0.024107
0.031458
0.0779743
-0.0233053
0.0393679
-0.478898
0.454228
-0.250241
-0.286763
-0.00684617
0.00840969
-0.270498
-0.251529
0.117354
-0.346842
-0.041969
0.87214
0.0259457
-0.365921
0.0174206
0.0263112
0.018797
-0.475737
-0.256056
-0.325802
-0.000946823
-0.101033
-0.371684
0.0102324
-0.00452435
0.137084
-0.338462
0.0531437
-0.516375
-0.268588
-0.329145
0.0444291
0.0464617
0.0209729
0.126752
0.123871
0.00531519
-0.289185
0.304815
-0.0647356
-0.0110272
-0.451843
-0.512782
-0.351458
0.013818
-0.360085
-0.0508699
0.0438942
0.00958262
-0.160071
-0.24738
0.0256619
-0.31555
-0.206767
0.0136243
0.0106479
-0.321785
0.010848
0.0595459
-0.394813
-0.349008
-0.0943073
0.128114
0.030335
-0.341841
-0.242584
-0.331712
0.00924982
0.0687186
0.123938
0.00398867
-0.394092
-0.240349
0.129096
0.0280141
-0.00453602
0.0481871
0.0398789
-0.277335
0.0500897
-0.288536
0.0506904
-0.203999
0.0742375
0.0031487
-0.30831
-0.394987
-0.000533201
-0.489668
-0.47568
0.0556369
-0.01736
-0.245887
-0.00256208
-0.30272
0.0293426
0.112856
0.0588363
-0.194258
-0.0325613
0.106421
-0.387794
0.0205049
-0.300181
0.0246078
-0.336267
-0.446093
0.0913078
0.305188
0.452397
0.0261821
0.00289412
0.00290481
-0.352689
0.663366
0.0312679
-0.143369
0.0168613
-0.0913292
0.075757
0.513894
-0.314506
-0.0302912
-0.0193285
0.0281533
0.022755
-0.39176
-0.273067
-0.329143
-0.238492
-0.294191
0.0119941
-0.378825
-0.0452289
-0.205746
-0.250923
0.552342
0.621966
-0.207168
0.10013
-0.256285
-0.014743
0.0915267
0.4494
0.0578635
-0.33104
0.0664383
-0.443973
0.00545418
-0.147147
0.0243664
-0.262325
-0.203651
0.00440938
0.00348353
-0.332965
0.437243
0.699046
-0.362805
-0.246139
-0.347527
-0.0375365
-0.252747
-0.241541
-0.10719
-0.332309
0.786837
-0.286389
0.74232
-0.429747
0.325856
-0.330308
0.0260585
0.209454
-0.437825
0.203554
-0.196372
-0.253068
-0.281373
0.892822
-0.266805
0.206315
0.140733
0.642927
0.119325
-0.221392
-0.207715
-0.140783
0.0191045
0.132319
0.509488
0.0166949
0.00918096
-0.243231
0.167971
-0.137308
-0.292759
0.0489838
-0.168923
-0.181647
-0.0997979
-0.382953
0.023194
0.101953
0.017096
0.103973
0.104546
-0.275051
-0.295762
0.043548
0.040992
-0.401521
-0.448537
0.221624
0.224693
0.0910311
0.701719
-0.0960173
-0.234268
-0.323876
-0.246204
-0.0742015
0.123604
0.786571
-0.388063
0.364599
0.0135007
-0.364654
0.183566
-0.0242039
0.377721
-0.0999005
0.0358962
-0.34025
-0.0991285
0.177942
0.817772
0.335794
0.788235
-0.380347
-0.238373
-0.433671
0.207347
0.296098
0.0857443
0.416402
0.115436
0.509268
0.312649
0.0376683
-0.206542
0.0132166
-0.231713
0.899944
0.416849
0.685863
0.527942
-0.210313
-0.367494
-0.249329
-0.30079
0.0708267
-0.425985
0.0854504
0.625066
-0.394105
0.00833871
-0.304955
0.214376
-0.277302
-0.309173
-0.14056
-0.224106
-0.261151
-0.319765
-0.349827
-0.107437
-0.433977
-0.153531
-0.279389
0.179407
0.649853
-0.161022
-0.333878
0.854381
-0.331211
0.278257
-0.182088
0.373435
0.0859891
-0.393741
-0.335397
0.483085
-0.29639
-0.264832
0.176966
-0.219945
0.00377551
-0.244426
-0.0671511
0.0489308
0.571151
0.792262
-0.244226
0.223601
-0.239729
0.839339
0.00963595
-0.25538
0.00510767
0.76866
0.236155
-0.26305
-0.239588
0.451404
-0.159218
0.0765262
0.391128
0.281223
0.294888
-0.195113
-0.217937
0.702029
)
;

boundaryField
{
    FrontBack
    {
        type            empty;
    }
    Top
    {
        type            zeroGradient;
    }
    In
    {
        type            zeroGradient;
    }
    Bottom
    {
        type            zeroGradient;
    }
    Out
    {
        type            fixedValue;
        value           uniform 0;
    }
    circle
    {
        type            zeroGradient;
    }
}


// ************************************************************************* //
