/*--------------------------------*- C++ -*----------------------------------*\
| =========                 |                                                 |
| \\      /  F ield         | OpenFOAM: The Open Source CFD Toolbox           |
|  \\    /   O peration     | Version:  2412                                  |
|   \\  /    A nd           | Website:  www.openfoam.com                      |
|    \\/     M anipulation  |                                                 |
\*---------------------------------------------------------------------------*/
FoamFile
{
    version     2.0;
    format      ascii;
    arch        "LSB;label=32;scalar=64";
    class       surfaceScalarField;
    location    "32";
    object      phi;
}
// * * * * * * * * * * * * * * * * * * * * * * * * * * * * * * * * * * * * * //

dimensions      [0 3 -1 0 0 0 0];

oriented        oriented;

internalField   nonuniform List<scalar> 
1171
(
-0.945271
0.945271
0.772632
-1.08307
0.310441
-0.160092
-0.716367
0.876459
0.0547291
-0.0717698
-0.279955
0.351724
-0.772632
0.0850467
0.687585
0.918727
-0.210036
-0.708691
0.840214
-1.07424
0.234023
-0.35744
-0.0439398
0.40138
-0.0102466
0.607261
-0.597015
-0.588375
0.92021
-0.331835
-0.42921
1.02417
-0.183951
0.211367
0.101757
-0.313124
0.979156
0.0450099
0.241939
-0.0305721
1.01633
-0.0371733
0.694365
-0.854457
-0.780789
0.604241
0.176548
0.199212
-0.787587
0.553765
-0.912052
0.358287
-1.08005
0.671833
0.408215
-0.643921
0.633675
0.0268653
-0.245632
0.218767
0.0488041
-0.632455
0.583651
0.46518
-0.509119
-0.839747
0.883753
-0.0440065
0.987574
0.0287546
0.905504
-1.0668
0.161293
1.00369
-0.0161141
-0.697823
-0.0829669
1.29476
-0.861133
-0.433625
0.163941
-0.0893075
-0.404172
0.493479
-0.273631
0.189777
0.083854
-0.603579
-0.479494
0.989736
-0.0842321
-0.0299591
0.894267
-0.864308
0.52159
0.773168
0.517954
0.0136548
0.451525
-0.792775
-0.106831
0.899606
0.563169
0.250557
-0.813726
0.079604
0.569419
-0.649023
-0.509323
-0.570726
-0.380851
-0.685946
0.0226642
0.251622
-0.274286
-0.960158
-0.0321351
0.992293
0.37468
0.0266998
0.823976
0.0947517
-0.598575
-0.045346
0.0339187
-0.826694
0.0690143
0.955475
-1.02449
-0.402631
0.0302677
0.372364
-0.712146
-0.248011
-0.745055
0.814069
0.77599
0.144221
-0.58336
0.993809
-0.81362
-0.180188
-0.233645
0.134132
0.0995135
-0.459348
-0.0497712
-0.276426
1.05242
0.00944757
0.422787
-0.432235
-0.52622
1.08939
0.714024
-0.820856
0.400266
-0.0659161
-0.33435
0.785325
-0.785325
-0.858055
0.0439855
-0.32394
-0.701704
0.671745
-0.0385321
-0.149388
0.18792
0.894623
-0.000355999
1.05477
-0.804214
0.226674
-0.324666
0.0979919
0.942371
-0.118396
-0.666907
-0.0520144
0.718922
0.147324
-0.228579
0.0812546
0.793621
-1.00366
-0.435606
0.308078
0.127528
0.683315
-0.634511
0.876279
-0.400302
-0.475978
0.495428
-0.694469
0.0346347
0.659834
0.128646
0.653487
0.0492128
-0.7027
0.141903
-0.0979179
-0.506748
0.104117
0.0353833
-0.898334
0.86295
-0.530698
-0.755176
0.0573535
0.500796
-0.0492711
0.277299
-0.834408
0.557109
0.424273
0.575727
0.597559
-0.563641
-0.409714
0.00816075
0.401553
0.549549
0.235776
-0.67047
0.750074
0.0966243
0.878667
0.00605606
-0.672964
-0.762856
0.798239
0.601473
0.0972284
0.343917
-0.441145
-0.15486
0.561851
0.0075682
0.881075
-0.816404
-0.064671
0.661083
0.332726
-0.436684
0.67494
-0.577712
0.40874
0.145024
-0.0510637
-0.767404
-0.215706
0.98311
-0.128603
-0.656722
-0.61414
0.360939
0.253201
0.657645
-0.651589
0.313192
1.03107
0.0237025
-0.762856
-0.150627
-0.0830186
0.714024
0.784903
-0.784903
0.84098
-0.825928
-0.0150524
-0.453558
0.877831
-0.191223
-0.315525
0.764202
-0.672999
-0.0912026
-0.933193
0.165789
0.115152
-0.713727
0.820856
-0.975716
-0.229189
0.214085
0.0151042
0.112578
-1.01406
0.901483
0.54251
-0.0245557
-0.289275
0.594036
-0.304761
-0.667345
0.779923
-0.155975
0.621084
-0.915677
0.294592
1.11657
-0.741151
-0.375418
0.733839
-0.0687222
0.00848776
-0.00818794
-0.000299817
-0.800522
-0.850982
0.134615
-0.701704
0.572722
-0.542454
0.268756
0.62005
-0.888806
0.777908
0.167363
0.491045
0.508955
-0.0838163
-0.725106
0.808922
1.00394
-0.122865
-0.733839
0.798239
0.183498
-0.42913
-0.0356781
0.0254878
0.0101903
0.669198
-0.427205
-0.241993
0.687585
-0.0653725
-0.229898
0.564166
0.105032
-0.0241425
0.000129212
0.0240132
0.00722107
0.00126669
0.161716
-0.227632
-0.940878
0.0170067
-0.142639
-0.0674732
0.127985
0.812963
0.741319
-0.165592
0.673546
-0.40479
-0.164723
0.391397
0.643643
0.0439422
0.23212
-1.05805
-0.975716
0.325409
0.671745
-0.168532
0.0191445
-0.82997
1.05908
-0.229111
0.476982
-0.104618
0.794228
0.305531
0.2612
-0.0192611
-0.680477
0.680477
0.228563
0.671043
-0.0351704
0.457958
0.458309
-0.00497581
-0.0307023
0.528499
0.0140104
-0.667345
0.568402
0.1958
-0.00885977
0.000671831
-0.643643
0.172754
0.886326
0.0398341
-0.734731
0.694897
0.759393
-0.820553
0.0611599
-0.777908
-0.038673
0.0542261
-0.0155531
0.0879477
-0.118811
-0.10081
0.219621
-0.00694144
-0.017201
0.784228
-0.744394
0.940655
-0.064196
-0.277329
-0.568141
0.84547
-0.00122142
0.00122142
0.222246
0.511414
0.37496
-0.886374
-0.195767
-0.551607
0.747374
-0.0192824
0.207203
0.378343
-0.231019
0.96427
-0.452856
0.823304
0.924217
-0.549257
0.18712
0.779923
0.595972
0.241026
0.642727
-0.656722
0.319523
-0.0596028
0.0607933
-0.00119053
0.94739
-0.00680876
-0.940581
-0.558799
0.542685
0.546442
-0.558799
-0.595972
0.542685
0.0128448
0.867477
0.0731783
-0.549549
0.45809
0.0914591
0.544809
0.651692
-1.1965
0.574287
0.389983
0.624184
0.582499
-1.20668
0.606161
0.318055
0.45809
-0.534069
-0.469872
-0.671178
-0.668054
-0.295627
-0.0088465
0.0088465
0.646697
0.497242
-1.1653
0.672914
-0.328997
-1.089
0.347845
-0.693908
0.445896
-0.0876244
-0.929903
1.01753
0.452044
-0.144586
1.09198
-1.02238
-1.09528
0.179064
0.916212
0.26682
-0.30578
0.0389598
0.716412
-0.800644
0.952404
-0.974422
0.0220178
-0.0191997
-0.797204
-0.219364
0.923017
-0.703654
-1.04903
1.02983
-0.679293
0.458841
0.220452
-0.54604
-0.187546
0.733586
0.00410453
-0.00532595
0.422324
0.0699803
-0.930528
0.860548
-0.825054
0.741237
1.12519
0.0891428
-1.21433
0.0299156
-0.0342157
0.435769
-0.363743
0.0390768
0.925874
-1.0135
-0.610236
-0.641175
-0.156029
-0.163254
-0.905311
-0.0691104
0.384701
0.288845
-0.130074
0.396894
-0.751339
0.563793
0.475978
-1.07449
-0.959888
-0.0924117
0.0167809
0.636551
-0.653332
0.112216
-0.593456
0.578069
0.181324
0.114788
0.977188
1.2089
0.901773
-0.970884
0.0482694
-0.0482694
-0.0703448
-0.0186873
-0.287092
0.335611
-0.0102019
0.195827
1.0894
0.0199034
-0.0268448
0.656587
0.343413
0.796576
-0.603579
-0.760272
-0.660141
-0.498678
0.498678
-0.210846
-0.113094
0.644185
-0.914127
0.269942
-0.460895
-0.545318
0.320463
-1.00641
-0.929403
0.951421
-0.723794
0.567765
0.659337
0.202451
-0.861789
-0.439688
-0.192965
0.864478
-0.671513
-0.160001
0.0167055
0.00120647
-0.017912
-0.144301
0.125614
0.964648
0.528886
-0.184316
-0.34457
0.567846
0.753381
-0.524817
0.0164658
-0.290097
-0.0934983
0.783618
-0.69012
-0.347072
-0.0749799
0.145517
-1.08491
0.144333
-0.711676
0.130248
0.718364
-0.848612
-0.898698
0.187022
0.716517
-0.791497
0.230899
-0.34971
-0.596764
0.157076
0.368508
0.694233
-0.0192929
-0.00720887
0.00720887
-0.00871729
-0.00103333
-0.0585695
-0.0153357
0.0352391
-0.307919
0.343016
0.729409
-0.813116
0.0837063
-0.67076
0.801008
0.805126
-0.088609
-0.699897
-0.198801
-1.13207
0.0212877
0.0269817
-0.401417
-0.919261
-0.874142
0.440516
-0.148905
0.231499
-0.0825937
-0.285028
-0.116389
0.454683
0.711316
-0.0576216
-0.00985159
0.927839
0.545164
0.131517
-0.676681
-0.211162
-0.0738656
-0.000797422
0.017503
0.747206
-0.962912
0.00413354
-0.00413354
-0.720971
0.796837
-0.0758665
-0.341236
-0.15773
-0.693216
0.171809
0.637113
-0.0579554
-0.886181
-0.4625
0.276082
0.186417
0.738929
-0.655222
0.361182
0.242319
-0.6035
-0.172055
-0.692825
-0.155787
-0.175807
-0.290691
0.468208
-0.517979
0.166075
0.761999
-0.928074
0.495428
-0.253474
0.104569
-0.0810619
-0.209629
0.591242
-0.0926775
-0.498565
-0.290455
0.311164
-0.0207092
0.540449
0.132465
0.112301
-0.316069
0.173809
0.14226
-0.00449554
-0.146131
-0.392614
0.0855574
-0.0421158
-0.0434416
0.967638
-0.191339
-0.149897
0.550708
0.37037
-0.554686
0.406536
-0.406536
-0.201133
-0.395533
-0.211804
-0.395533
-0.773818
-0.852368
0.179369
-0.478431
0.757366
0.0487879
0.119299
0.574934
0.110446
0.122946
0.00890096
-0.131847
-0.202348
0.62739
-0.957369
0.389229
-0.0823441
0.0784513
0.00389282
-0.760122
-0.177588
-0.568614
0.700132
-0.518772
-0.0941549
-0.115474
-0.344552
-0.0789208
0.0789208
0.0546559
-0.000429844
0.144234
0.0853675
-0.659748
0.0911339
-0.0215508
0.473807
0.526193
0.853539
0.014363
0.0291934
-0.0435564
-0.301994
-0.584187
-0.490907
0.117999
-0.122327
0.00432888
-0.172784
-0.408202
-0.182779
0.819892
-0.590928
-0.169194
0.0399769
-0.0138356
0.279456
-0.521179
-0.201945
-0.202542
-0.0250896
-0.465888
0.425666
0.0402215
-0.0486583
0.295239
-0.865965
-0.526152
0.617543
-0.889984
0.717929
0.423742
-0.0323249
0.0549479
-0.022623
0.145785
-0.63384
-0.00929995
0.64314
-0.890685
0.653698
-0.724043
-0.00594827
0.00783949
-0.00783949
-0.299604
0.40335
0.0324193
-0.0132792
0.0276422
0.58218
0.497145
-0.561816
0.0122086
-0.002701
-0.00450787
0.00573304
-0.00573304
-0.446675
0.57914
0.0170031
-0.0170031
-0.781488
-0.00907901
0.0131835
-0.487843
0.578977
0.562823
-0.638689
0.0716343
-0.0716343
0.004751
-0.0354533
0.00466016
-1.08603
0.710612
-0.529269
-0.00532595
0.607913
0.00379325
-0.611706
-0.712089
0.121161
-0.31274
-0.0124666
0.325206
-0.0295664
-0.0280552
-0.607941
-0.025899
0.0269817
0.00533947
-0.00120593
-0.00276729
0.00276729
-0.176665
0.133223
-0.482178
0.13559
0.660986
-0.101747
0.00841534
-0.00841534
0.508442
-0.124285
0.00906091
0.0191422
0.000407092
0.60935
-0.733635
-0.763329
0.613431
-0.125919
0.339892
0.803084
-0.00871729
-0.0831371
0.0838089
-0.643272
0.538733
-0.278728
-0.104176
-0.0298724
-0.0266291
0.0138577
0.472319
-0.0862857
-0.412279
0.717573
0.00311346
0.001175
-0.001175
-0.221055
-0.0912973
-0.56891
0.617698
-0.133135
0.50775
-0.164004
0.858369
0.814412
0.00533947
-0.700639
0.584515
0.0353559
0.02147
-0.0568259
0.564773
0.103145
-0.0116553
0.0651489
-0.0534936
0.008888
-0.008888
-0.746451
0.0233649
-0.0463159
0.0654581
-0.0848284
0.0848284
-0.002701
-0.000301951
0.779475
0.106851
-0.314014
-0.0941876
-0.517927
0.0753328
-0.0656669
0.0656669
-0.0388054
0.0837225
-0.0837225
0.0261019
-0.0261019
-0.359133
-0.0775506
0.236834
0.071244
0.0515539
-0.745873
-0.0670344
0.1586
0.0248972
-0.234989
0.0834985
-0.0834985
-0.466123
-0.0518564
0.226473
-0.00770652
0.00257218
-0.670336
0.657491
0.00857421
-0.0473797
0.0421987
-0.0776521
-0.0120882
-0.160746
0.172834
-0.147335
-0.202375
-0.0800477
0.0800477
0.0532038
-0.0532038
-0.0264624
-0.0934526
0.119915
-0.0444077
-0.192463
0.00570337
-0.0102112
-0.0857328
0.218956
-0.025717
0.493244
0.0105933
0.01342
-0.0501164
0.0501164
-0.733343
0.3138
-0.12668
-0.206046
-0.0225328
-0.0175861
0.0201583
0.189093
0.0305274
-0.00196246
0.00236955
0.0875581
0.0304405
0.0574413
0.101159
-0.0319183
0.0220667
-0.00295855
0.00332081
0.0036707
-0.00203842
-0.00163228
-0.003876
0.0137067
0.0264991
-0.0264991
0.0475628
-0.0449067
0.0449067
-0.189933
0.0167408
0.031434
-0.0759059
0.0172139
0.0796761
-0.0796761
0.229315
-0.232906
0.0855719
-0.065689
-0.167217
-0.0136941
0.0136941
0.408083
0.251751
-0.523857
-0.0807079
-0.0416195
0.543673
-0.00220898
-0.0526097
-0.454916
0.114094
-0.150135
0.167495
-0.0173599
-0.0492356
0.0492356
0.917178
-0.587826
-0.00124576
-0.00263024
-0.00590761
-0.290682
-0.000224044
0.00478079
-0.04789
-0.628993
0.569784
-0.657985
0.0143807
0.0614423
0.0155506
0.0240144
-0.156043
-0.33078
0.254875
-0.0531672
0.0267048
0.173571
0.137593
0.27116
0.260929
-0.245378
0.00246478
-0.117111
-0.218513
0.0659721
-0.00853084
0.158263
-0.134249
-0.0689069
0.156465
-0.415666
0.119183
-0.101969
0.0591398
-0.471419
0.172276
0.182422
-0.251329
0.0117443
-0.181679
0.181455
0.00382242
0.152643
-0.0279036
0.0464024
0.46204
0.0128049
0.00754088
0.00233824
0.0388291
-0.235873
-0.203253
0.589539
0.164629
0.0618446
0.0708422
-0.064352
0.0465805
-0.103406
-0.0306972
0.164124
-0.149743
0.0213986
-0.011457
-0.108482
-0.0290366
0.0434653
0.252348
-0.0311742
-0.0310716
-0.306993
-0.0113144
0.221499
0.137706
0.176094
0.0562943
0.094198
0.0647666
0.517413
-0.00459083
0.109069
0.0392281
0.0695232
-0.108751
-0.272106
-0.194
0.0267831
-0.219071
0.28021
)
;

boundaryField
{
    FrontBack
    {
        type            empty;
    }
    Top
    {
        type            calculated;
        value           uniform 0;
    }
    In
    {
        type            calculated;
        value           uniform -1;
    }
    Bottom
    {
        type            calculated;
        value           uniform 0;
    }
    Out
    {
        type            calculated;
        value           nonuniform List<scalar> 10(1.19847 1.07888 1.14105 0.996144 1.23419 0.986109 1.14394 1.00621 0.607669 0.607337);
    }
    circle
    {
        type            calculated;
        value           uniform 0;
    }
}


// ************************************************************************* //
