/*--------------------------------*- C++ -*----------------------------------*\
| =========                 |                                                 |
| \\      /  F ield         | OpenFOAM: The Open Source CFD Toolbox           |
|  \\    /   O peration     | Version:  2412                                  |
|   \\  /    A nd           | Website:  www.openfoam.com                      |
|    \\/     M anipulation  |                                                 |
\*---------------------------------------------------------------------------*/
FoamFile
{
    version     2.0;
    format      ascii;
    arch        "LSB;label=32;scalar=64";
    class       volVectorField;
    location    "32";
    object      U;
}
// * * * * * * * * * * * * * * * * * * * * * * * * * * * * * * * * * * * * * //

dimensions      [0 1 -1 0 0 0 0];

internalField   nonuniform List<vector> 
808
(
(0.8963 -0.0114882 0)
(1.01526 -0.0354108 0)
(1.11105 -0.0455693 0)
(1.06705 0.0114494 -2.46002e-21)
(1.49323 -0.274925 0)
(0.950476 -0.0221161 0)
(1.12207 -0.0545989 -3.87571e-21)
(1.15492 -0.0513554 0)
(1.36977 -0.220623 2.81674e-20)
(1.22923 -0.0782918 -8.93973e-21)
(1.09213 0.0511487 1.07877e-20)
(1.40099 -0.242017 0)
(1.01385 -0.0516709 0)
(0.74109 -0.0269273 0)
(0.854942 0.0847969 1.15101e-20)
(1.0956 -0.0442686 0)
(0.740326 0.000657449 -3.28792e-21)
(0.999109 -0.040209 -8.74235e-23)
(1.09317 -0.0354183 0)
(1.10819 0.00422022 0)
(1.14678 0.0299022 -1.5054e-20)
(0.929119 0.120234 1.16448e-19)
(1.07468 0.0139839 -1.71235e-20)
(1.1712 -0.0213894 0)
(0.946579 0.170696 0)
(1.34836 0.0887675 -2.11691e-20)
(1.2903 -0.15793 9.91548e-21)
(0.954287 -0.0219366 -5.10575e-21)
(1.07554 -0.0273997 0)
(1.04012 0.0315573 -4.01157e-22)
(0.967226 -0.0157976 4.12674e-24)
(1.11789 -0.00856846 0)
(1.0764 0.0221254 0)
(1.06324 -0.0181882 3.90208e-21)
(1.30312 -0.0476067 8.48923e-21)
(0.743482 -0.127944 1.11278e-19)
(0.873525 -0.0317411 -1.01998e-20)
(1.03401 0.0142352 1.92415e-21)
(1.20658 0.052848 -3.6748e-21)
(1.12027 0.0292648 0)
(1.25356 -0.0400705 -1.5177e-20)
(1.27756 -0.115844 0)
(1.01295 -0.00206756 -1.07495e-20)
(1.10661 -0.0334931 1.28267e-20)
(1.25369 0.031842 0)
(1.01041 0.0159413 -2.36095e-20)
(0.999896 0.0338907 2.81629e-21)
(1.26341 -0.240079 1.08005e-20)
(1.17806 0.0460793 -8.29442e-21)
(1.42306 -0.152203 -4.06942e-20)
(1.11051 -0.0744008 7.55757e-21)
(1.14503 -0.0632029 0)
(1.1202 0.000828719 9.6084e-21)
(1.14507 0.0198471 0)
(1.30449 0.2394 2.21144e-21)
(1.07494 0.0317692 -3.30915e-21)
(1.20697 0.0378246 0)
(1.20149 0.0572918 5.50201e-21)
(1.23632 -0.0768283 9.5963e-21)
(1.13747 0.0227185 -8.85518e-22)
(-0.379523 0.3977 0)
(1.22047 -0.211758 -8.14708e-21)
(1.20008 0.026592 0)
(1.42592 -0.0288993 -2.97203e-20)
(1.12447 0.00695066 -1.3589e-20)
(1.04306 -0.0283978 -1.05323e-20)
(1.4239 -0.0866475 3.41557e-20)
(0.670028 0.0212367 0)
(1.09875 -0.0189813 0)
(1.4765 -0.35104 0)
(0.903112 0.0325158 -2.63295e-22)
(1.30045 -0.130479 -4.47213e-20)
(1.01794 0.0576227 0)
(1.05251 -0.0235088 -4.11448e-21)
(1.13681 -0.339709 -5.47968e-20)
(1.09901 -0.0470021 -1.70219e-20)
(1.12951 0.0178361 1.05787e-23)
(1.30613 0.48771 2.44508e-20)
(1.09915 -0.0471262 0)
(1.0075 0.269647 -1.94752e-19)
(1.34882 0.0648784 1.17431e-20)
(0.746668 0.0155115 0)
(0.846159 0.0221951 -1.27958e-20)
(0.971071 -0.113671 4.18684e-21)
(1.08756 -0.0400296 1.34017e-20)
(1.17088 0.0137254 8.61546e-22)
(1.32621 -0.233176 0)
(1.33391 0.278807 0)
(1.08101 0.00535275 -1.52058e-20)
(1.34765 0.119067 2.43257e-20)
(1.07518 -0.0140175 1.23506e-20)
(1.32707 -0.0999349 -1.55151e-21)
(0.96493 0.0243918 1.86842e-20)
(1.00402 -0.0221842 0)
(1.11261 0.0202149 2.14521e-21)
(1.39973 0.0276132 -8.56376e-20)
(0.769714 0.0175734 -3.82894e-21)
(1.3722 -0.0034324 0)
(1.32649 -0.0631434 0)
(1.45208 -0.0580807 -5.28165e-20)
(1.10122 -0.0522089 -4.80026e-21)
(1.11176 0.0118805 -1.05295e-22)
(0.943215 0.0199729 1.13579e-20)
(1.16102 0.00623599 -1.2437e-23)
(1.26507 0.0363335 -1.78688e-20)
(1.00429 0.00459357 1.67926e-20)
(1.45108 -0.00468627 0)
(0.904048 0.0200046 0)
(1.09261 0.0243484 7.07436e-21)
(1.21427 -0.212502 -6.08952e-21)
(1.22998 0.0281459 6.04842e-21)
(1.04138 0.0413391 -1.28138e-19)
(1.15339 0.0331945 -2.73036e-21)
(1.29766 0.0766299 1.60562e-22)
(0.806198 0.0147631 0)
(0.918799 -0.0539736 7.66586e-20)
(1.13856 0.016405 -6.62907e-21)
(1.47433 -0.257542 -2.02434e-20)
(1.13147 -0.025639 -9.47374e-21)
(0.928379 0.0195505 2.26084e-21)
(-0.329692 0.160344 0)
(0.860665 -0.0167234 2.41099e-21)
(0.793183 0.0213507 0)
(1.05811 0.00527697 -9.24653e-23)
(1.01077 0.0284774 0)
(1.29645 0.319183 3.91549e-21)
(1.03769 -0.0509279 -3.08353e-20)
(1.42389 0.0479587 -1.93358e-21)
(1.14932 -0.0527815 0)
(1.09383 -0.0204406 0)
(0.748187 -0.021318 0)
(1.14664 -0.033813 -4.77846e-21)
(1.23254 -0.0365121 8.29279e-21)
(1.06388 0.109943 -3.77341e-20)
(0.860555 -0.0292003 0)
(1.09594 0.0207144 -1.745e-21)
(1.13117 0.218001 2.95438e-21)
(1.17332 0.107006 3.28984e-22)
(0.995463 0.0283187 4.90125e-21)
(1.11555 0.00920309 8.82693e-23)
(-0.0458218 -0.0237818 0)
(1.09368 -0.0166557 -1.36652e-20)
(1.02066 0.0657408 4.16417e-21)
(0.722304 0.0235609 -4.92424e-21)
(1.248 0.165597 4.19806e-21)
(1.16544 0.242832 -2.44128e-22)
(1.04497 0.0181638 1.67985e-20)
(0.992072 0.027985 0)
(1.24674 -0.0900221 -3.29898e-20)
(1.13302 0.109463 0)
(0.948256 0.0314541 1.0204e-20)
(0.966297 0.271141 1.55515e-19)
(0.968027 0.033796 0)
(0.81873 0.0844587 0)
(-0.122024 -0.0661556 -6.19706e-20)
(1.32582 0.13377 -8.2512e-21)
(0.677138 -0.0192294 0)
(1.3951 0.088458 0)
(1.17233 0.148287 0)
(1.33683 0.120314 8.90244e-21)
(-0.0483733 -0.181066 0)
(-0.0675487 -0.027721 2.88252e-20)
(1.10738 -0.026865 9.96954e-20)
(1.00179 0.0352583 1.38611e-21)
(0.86055 0.000341146 0)
(1.04153 -0.0357289 1.39469e-20)
(0.883888 0.0214781 0)
(0.860557 -0.0339055 -1.07696e-19)
(1.04233 0.0436058 1.3286e-20)
(1.13995 -0.0161811 4.28342e-21)
(1.08937 0.0124168 7.01748e-21)
(1.0126 0.0660456 -1.36108e-20)
(0.921056 0.213622 2.43026e-22)
(1.14714 -0.350572 4.71867e-22)
(0.91217 -0.0256764 0)
(1.06641 0.00371466 -1.3394e-20)
(0.873941 0.00744725 -1.33954e-20)
(1.39295 -0.152184 2.3556e-21)
(0.69019 0.0310684 0)
(1.09151 -0.141491 0)
(1.1534 -0.0163413 6.3978e-21)
(1.37344 0.210595 6.58294e-21)
(1.10717 0.0155928 5.37219e-21)
(1.03556 0.0214249 1.9228e-20)
(0.580479 0.0821372 -4.41782e-20)
(0.812628 0.00245102 2.3255e-20)
(1.13888 -0.0214475 7.23584e-21)
(1.37558 -0.0200548 -5.14637e-21)
(1.13023 -0.0159995 -8.04203e-21)
(1.31275 -0.0092846 4.41012e-21)
(-0.125103 -0.0293918 4.44559e-20)
(1.25149 0.00504414 0)
(0.633057 -0.0109033 0)
(1.0638 -0.0215323 -6.16465e-21)
(1.09197 0.0143738 7.93091e-21)
(-0.00870271 0.0319695 0)
(0.884153 -0.0251848 5.76961e-22)
(1.17628 -0.0424541 -3.67797e-21)
(0.97316 0.037096 2.24599e-21)
(1.07665 0.0396327 -8.6983e-21)
(1.00149 0.0190701 2.55712e-21)
(1.0762 -0.0376617 3.2444e-21)
(1.06214 0.0214994 0)
(0.376227 -0.0429459 0)
(1.04593 -0.0650342 0)
(1.11442 0.100411 -2.29608e-20)
(-0.0391269 -0.201102 5.07826e-20)
(1.10935 0.0452907 -1.73117e-23)
(0.996738 -0.121642 0)
(0.753981 0.0194954 -9.53585e-21)
(1.03285 0.0981778 2.34678e-21)
(-0.00563358 -0.0419027 -1.64417e-19)
(0.973645 0.0463353 -6.96962e-20)
(0.636464 -0.0125395 0)
(0.779899 0.149076 0)
(0.9332 0.0429251 8.85437e-21)
(1.06514 -0.111188 6.39394e-21)
(1.26513 0.390786 -6.81497e-21)
(0.997228 0.133584 -1.42715e-22)
(1.257 0.0216851 -2.4216e-21)
(0.974026 0.181456 0)
(1.34746 0.414687 -2.56102e-20)
(0.679107 -0.0262742 0)
(0.803637 -0.0245512 -4.22557e-21)
(1.05759 -0.0245582 -1.93476e-22)
(0.606362 0.0111337 0)
(1.10069 -0.00620547 0)
(0.238228 0.096247 -5.995e-20)
(1.21108 -0.0495559 1.61728e-21)
(0.722396 -0.0152372 2.30762e-21)
(0.990144 -0.00228524 0)
(0.552364 -0.0171095 0)
(0.755905 -0.0199646 -3.55584e-21)
(0.546359 -0.0133824 -2.92959e-22)
(1.34592 0.0562772 2.08283e-22)
(1.14943 -0.136911 -3.55624e-21)
(0.707871 0.0190579 -2.82576e-21)
(1.15212 -0.00033455 5.83988e-22)
(1.01704 0.144519 1.34466e-22)
(0.558926 0.0140042 7.6532e-21)
(1.25984 0.0619382 1.18394e-21)
(1.19452 0.0256931 0)
(0.847474 0.251684 0)
(0.496354 0.019735 0)
(1.07562 -0.0173033 0)
(1.14656 0.0317122 1.48124e-21)
(0.98751 0.0999508 0)
(1.22634 -0.00627359 0)
(0.997551 0.114065 0)
(1.19627 0.226085 0)
(-0.0281767 -0.0698859 5.16913e-20)
(1.19384 0.0890858 -8.93716e-22)
(1.18326 0.167098 0)
(1.26988 0.0638101 3.62513e-21)
(1.18346 0.0919487 9.25626e-22)
(1.1217 0.0283986 3.30874e-21)
(1.17456 -0.141638 5.25192e-21)
(1.14854 0.0435408 0)
(0.583434 -0.0161682 7.95743e-21)
(1.04903 0.043331 1.32379e-20)
(1.30227 -0.141265 0)
(1.10885 0.0240386 -2.74596e-21)
(1.25843 0.0906669 3.15771e-21)
(0.548302 -0.176785 1.94112e-21)
(1.11954 0.00769031 9.22757e-21)
(1.14048 -0.0472724 -7.01254e-21)
(1.07014 -0.0426491 0)
(1.25677 0.167631 -6.26011e-21)
(1.2168 0.058333 3.09903e-21)
(0.704565 0.211164 1.50888e-20)
(0.688681 -0.237836 0)
(-0.0199276 -0.0235907 0)
(0.972532 0.107818 -1.8616e-20)
(1.09803 -0.0149982 0)
(1.36452 -0.097595 3.5004e-20)
(1.28511 0.0325385 2.12899e-22)
(1.09992 0.0195504 6.74112e-21)
(1.25951 0.043556 -3.05251e-21)
(1.38294 0.0482513 1.20563e-19)
(1.02839 -0.332935 5.53256e-20)
(1.17284 -0.0520503 8.78389e-22)
(0.799435 -0.116063 0)
(0.783606 -0.159294 0)
(0.906322 0.00508409 -2.85199e-20)
(1.3465 -0.0914468 -6.16833e-20)
(1.11955 -0.109004 0)
(0.733129 0.286697 1.05943e-20)
(0.405171 -0.198689 0)
(0.746233 -0.211617 -8.59355e-22)
(0.872047 0.237987 -1.27905e-20)
(0.816179 0.0254451 -5.49048e-21)
(1.22848 -0.115402 0)
(1.25957 -0.031701 -2.48346e-22)
(1.11669 -0.0993952 4.42255e-21)
(0.758752 -0.0371135 5.89276e-21)
(1.16185 -0.118777 -5.05241e-21)
(0.67281 -0.0567912 0)
(1.09077 0.0726002 0)
(1.23835 -0.174235 -2.995e-21)
(0.924641 -0.135194 8.68103e-22)
(1.33795 0.105797 -4.73829e-21)
(1.11788 -0.078901 -4.21618e-21)
(0.912842 -0.172129 1.95554e-22)
(1.06341 -0.050284 0)
(0.43184 -0.143209 1.48668e-20)
(1.32634 0.105462 -1.41606e-20)
(0.790736 0.0912809 -1.82205e-20)
(0.184499 -0.424147 -2.05293e-21)
(1.43573 -0.0938395 2.71493e-20)
(0.809388 0.0543837 4.06266e-20)
(1.32196 -0.167061 2.83655e-21)
(1.112 -0.0538579 9.73662e-22)
(-0.0483913 -0.210119 -8.71866e-21)
(0.999863 -0.00592285 0)
(1.03338 -0.0890883 -1.59493e-20)
(0.85082 -0.0345389 1.12723e-20)
(1.10463 -0.0374936 4.88729e-21)
(0.893817 0.0421301 -3.1953e-21)
(0.52525 -0.0235972 8.27347e-22)
(1.43554 -0.380945 -1.62935e-20)
(1.07186 0.0529507 0)
(1.011 0.0233965 1.08952e-21)
(1.12079 0.0284445 -3.30095e-21)
(1.24715 -0.108351 0)
(0.708218 -0.194843 -6.06714e-21)
(1.12316 0.0548383 3.51367e-21)
(0.664823 0.20093 -2.12047e-22)
(1.16623 -0.0618308 4.93668e-21)
(0.857144 -0.219204 2.96231e-21)
(-0.0376799 -0.148272 0)
(0.142732 -0.124615 -2.34606e-23)
(1.10059 0.00971607 0)
(0.859772 -0.161722 -7.14255e-21)
(0.870706 -0.142975 0)
(1.13713 -0.00783984 6.373e-21)
(1.01707 0.0269849 0)
(1.17066 -0.187341 0)
(1.39981 -0.0887093 2.18629e-20)
(0.802732 -0.0975598 0)
(0.940091 0.114152 3.73969e-20)
(1.11584 -0.00858123 3.55225e-23)
(1.03454 0.0371423 3.96685e-21)
(1.35371 -0.0295132 -1.95172e-20)
(1.23347 0.131422 -9.0937e-22)
(1.21961 0.0431133 2.22613e-21)
(1.10157 0.0713935 0)
(1.15533 -0.0724111 0)
(1.10835 0.0838665 1.79443e-21)
(1.24747 -0.0353995 0)
(1.37975 0.202744 -1.91652e-20)
(0.746906 0.20647 4.43518e-21)
(1.02631 0.017102 2.55421e-20)
(1.20235 0.0258349 -6.41996e-23)
(-0.00650441 -0.0619466 0)
(-0.0394865 -0.123378 0)
(0.188448 0.0668844 -5.38048e-20)
(-0.0260826 -0.192255 0)
(0.576219 0.298586 -7.77918e-21)
(1.18734 0.0515875 -2.69268e-21)
(1.12508 -0.0721739 -6.0755e-21)
(1.22459 -0.181691 -7.38458e-21)
(1.24035 -0.0622843 0)
(0.694237 -0.0163115 -2.08024e-21)
(1.1547 0.0915585 0)
(1.11953 0.052401 -9.90244e-22)
(0.523482 -0.112167 0)
(0.560037 0.137337 -7.82953e-22)
(1.18062 0.0766194 0)
(1.17327 0.0179983 0)
(0.592361 0.234667 3.93251e-20)
(0.47086 0.114552 -3.6174e-22)
(0.99508 0.163436 -1.41749e-21)
(1.00911 0.0177889 -9.30538e-21)
(0.246761 -0.114968 0)
(1.12741 0.14162 -3.16274e-20)
(1.2119 -0.0132572 2.62168e-21)
(1.09833 0.135223 4.52634e-21)
(0.427303 -0.0843874 1.02186e-20)
(-0.0519575 -0.179986 -1.02592e-19)
(1.21467 0.0627308 0)
(-0.0309995 0.0257966 0)
(1.23757 0.00522565 4.35495e-21)
(0.33008 -0.160924 -1.09975e-20)
(1.12504 -0.01444 -1.9097e-20)
(1.1052 -0.0508383 0)
(1.08163 -0.0374187 3.90219e-21)
(1.33993 -0.273636 3.15153e-20)
(0.584355 -0.0470126 -1.05874e-20)
(1.14625 -0.0485526 -1.82679e-21)
(1.13778 -0.0743345 -2.41399e-22)
(0.630249 -0.255364 2.99839e-20)
(1.15167 -0.124882 -1.07137e-20)
(1.12941 0.0203277 0)
(1.21682 0.0909008 0)
(1.18426 -0.125778 3.32509e-21)
(1.20321 0.00609717 -2.36935e-21)
(0.828504 -0.14277 -9.67366e-20)
(1.1963 -0.106604 -1.20344e-20)
(1.14814 0.0354842 8.70766e-21)
(0.521054 -0.00137057 1.60442e-20)
(0.543041 0.266855 -8.15787e-20)
(0.18452 0.196344 5.00887e-20)
(1.16474 0.181875 -6.31948e-21)
(1.25552 -0.501737 7.08915e-21)
(1.2572 0.0588352 -7.42689e-21)
(1.21425 -0.0752623 -3.94042e-21)
(0.946382 -0.24456 9.38268e-20)
(-0.160748 0.191154 0)
(1.15799 0.0649061 -1.51987e-21)
(-0.165652 0.101019 -2.53098e-20)
(1.23261 0.0456028 -3.76875e-21)
(1.2629 -0.0400207 5.01982e-21)
(1.08844 0.0297275 0)
(0.519211 -0.218016 0)
(1.16119 -0.0401474 0)
(1.24936 -0.0168922 5.9698e-21)
(1.22225 -0.00261089 -1.36463e-20)
(1.1568 -0.0586557 -2.11051e-21)
(0.460417 0.0171463 0)
(0.612871 0.0108725 0)
(0.614624 -0.00309113 3.58909e-22)
(0.43392 -0.0162582 0)
(1.22728 -0.0334992 0)
(1.02306 -0.0128306 2.42441e-20)
(0.464162 -0.409451 0)
(0.957329 0.0443204 0)
(1.08484 0.00570263 0)
(1.16372 0.184943 -1.41704e-20)
(1.2122 0.00999325 -1.57784e-22)
(0.967468 -0.0326437 9.31056e-21)
(1.32804 -0.406009 -1.19027e-19)
(0.697639 -0.318365 2.13947e-20)
(1.26509 0.17571 3.59587e-21)
(1.15197 -0.0137948 0)
(-0.0889335 0.0776852 0)
(-0.189487 0.157261 0)
(1.17697 -0.0325895 -3.27963e-21)
(1.34155 -0.286062 -3.2556e-20)
(1.26946 0.00626586 0)
(1.08533 0.0581086 -8.76055e-21)
(0.563894 0.0550669 0)
(1.53157 -0.144055 8.49894e-20)
(0.40644 0.508532 1.30123e-19)
(0.318675 -0.0594703 0)
(1.13287 -0.281039 1.27793e-19)
(0.172156 0.385783 0)
(0.137812 -0.334849 1.24807e-20)
(1.21964 0.0228056 0)
(-0.0595445 0.21707 7.48091e-21)
(0.983692 -0.0497834 0)
(1.33514 -0.149457 -1.63464e-20)
(-0.150321 -0.102457 -8.78507e-21)
(1.13289 -0.0336086 1.7639e-21)
(1.0716 0.00789942 -1.82433e-20)
(0.584952 -0.538477 -9.03762e-20)
(1.20595 0.0897214 -1.49808e-21)
(1.19969 -0.118105 2.65052e-21)
(1.16897 0.241671 -2.75929e-20)
(1.21477 -0.31277 -1.08609e-20)
(1.17564 -0.0246306 4.48041e-22)
(-0.172174 0.284512 -4.71929e-20)
(-0.0339444 0.0152673 -6.15329e-21)
(1.39416 0.147821 3.69557e-21)
(1.05695 -0.0452006 0)
(0.646828 0.124823 6.9529e-21)
(1.43389 -0.44468 9.17213e-20)
(0.996975 -0.0821254 -6.84518e-20)
(1.38315 0.157045 5.01035e-20)
(1.06971 -0.0347304 5.03159e-21)
(1.12082 -0.0481009 1.04017e-20)
(1.06255 -0.00745396 0)
(1.1639 -0.0112511 0)
(1.29337 -0.153457 5.1087e-21)
(1.08842 -0.0182632 -4.53942e-21)
(1.21857 -0.296854 1.16886e-20)
(1.12187 0.0557896 -6.45418e-21)
(1.40502 0.0373085 -4.50851e-20)
(0.424424 0.0131854 0)
(1.13792 -0.138326 4.6233e-21)
(1.23328 0.0410912 0)
(1.14287 0.0462626 -4.95071e-21)
(1.14286 0.0286174 0)
(1.03952 -0.00739983 1.29745e-20)
(1.23565 0.0497113 7.32805e-21)
(1.04489 -0.0842657 0)
(0.0586346 -0.0299436 1.71967e-19)
(0.887012 -0.223963 -7.3595e-20)
(1.35115 0.134298 -3.22834e-20)
(-0.105095 -0.130393 4.09265e-20)
(1.16896 0.0160498 7.12472e-23)
(0.645713 -0.0292948 -5.42683e-21)
(-0.100159 -0.113975 -4.26713e-20)
(-0.0134901 -0.0696982 -2.52071e-20)
(1.0218 -0.0279433 0)
(-0.0316819 -0.0451572 0)
(1.14656 0.0974928 0)
(0.11335 -0.121481 0)
(1.11769 -0.0335877 0)
(0.14786 0.0293693 0)
(1.12014 0.0257156 0)
(1.08638 0.0118053 0)
(1.37555 0.0216598 -2.74969e-24)
(0.594308 -0.294521 -2.36872e-20)
(-0.174063 0.0216955 0)
(1.20932 -0.0770499 7.12614e-20)
(1.33579 0.163538 -4.1009e-22)
(1.26823 0.132862 0)
(-0.0399539 -0.0454916 0)
(1.1631 0.0169492 -2.57183e-21)
(1.17472 -0.00418747 3.42642e-22)
(1.15686 0.381121 0)
(0.319812 -0.101015 6.94512e-20)
(1.121 0.0650493 1.76428e-21)
(0.247829 -0.0532141 -5.80023e-20)
(-0.0572659 0.0340216 -2.78244e-20)
(-0.0310775 0.047434 7.3574e-20)
(-0.0121938 0.039778 -1.70421e-20)
(0.892094 0.0517809 5.10711e-21)
(1.14979 0.0352357 -9.38331e-21)
(1.0251 -0.00772118 0)
(1.07135 -0.0648122 -2.09433e-20)
(1.19687 0.0144947 1.69592e-22)
(-0.0120208 -0.0749313 1.03709e-19)
(0.981941 -0.0733744 -5.89625e-20)
(0.794063 0.0328829 -9.32638e-21)
(1.22464 0.171824 2.30845e-21)
(0.0793216 -0.0331524 3.7486e-20)
(0.258585 -0.0388629 -5.2723e-20)
(0.460829 -0.0664328 -6.30045e-20)
(1.26289 -0.0262308 3.93046e-21)
(-0.0585718 -0.0434645 0)
(1.09229 0.122823 -4.73421e-21)
(1.10649 -0.182784 8.7214e-21)
(1.18583 -0.214225 -8.40975e-21)
(1.25432 0.151652 0)
(1.53177 -0.207695 8.25922e-20)
(1.1761 0.0329703 -4.25911e-21)
(-0.0199989 -0.0756821 -3.65951e-20)
(0.245318 0.0441339 0)
(0.918217 0.0454577 -3.2602e-21)
(1.11642 0.0198705 1.28986e-21)
(0.798751 -0.0126389 3.00279e-20)
(1.1693 0.0152357 1.8722e-21)
(1.11651 0.053564 0)
(1.18646 -0.167683 -1.63626e-20)
(-0.0513681 -0.161773 -8.02499e-20)
(1.29643 0.000534471 2.10858e-20)
(1.0965 0.170831 -8.61944e-21)
(1.11149 0.0618433 7.38153e-21)
(-0.0455935 -0.0832355 1.73664e-20)
(-0.0157919 0.00383781 -5.47476e-20)
(0.885545 0.170249 0)
(0.619083 0.154805 0)
(1.14736 0.101809 -2.28224e-20)
(1.05017 0.0688581 1.52809e-20)
(1.11797 0.0519419 0)
(0.732503 0.105166 6.71622e-20)
(0.713969 0.0739405 -9.75206e-21)
(1.09634 0.107872 0)
(1.09983 0.0634493 0)
(1.20736 0.0752621 0)
(1.14741 -0.0329709 0)
(1.16171 0.150083 3.53475e-21)
(-0.0420968 0.0414951 3.03853e-20)
(1.2374 -0.0551125 9.68431e-21)
(1.46047 -0.176346 -9.52735e-20)
(1.15042 0.0965819 -5.17568e-21)
(-0.0754884 0.166199 0)
(1.16987 -0.13003 0)
(0.628314 -0.0196597 -9.97843e-22)
(0.527502 0.00596456 -5.27765e-20)
(0.0719803 0.0346224 4.31673e-20)
(0.940197 0.0213237 -8.63619e-22)
(0.766304 -0.278824 0)
(0.705841 -0.0936788 0)
(1.09355 0.0476615 0)
(0.53324 0.505039 1.20471e-20)
(-0.00687969 -0.027305 -2.70171e-20)
(1.17335 0.135016 1.63348e-21)
(-0.0268643 -0.133445 7.05977e-20)
(1.18395 -0.0362751 2.09259e-21)
(1.16208 0.308735 5.26304e-20)
(1.11348 -0.0824089 7.94273e-21)
(0.196227 0.17203 6.20981e-20)
(1.17194 0.199153 -1.14413e-21)
(0.966056 -0.11876 0)
(0.551964 0.267439 0)
(0.819974 -0.118402 4.00005e-21)
(-0.194554 -0.0195197 0)
(0.605168 0.0289815 2.67717e-21)
(0.619259 -0.42924 -3.60668e-21)
(0.236014 0.0480036 -1.0169e-19)
(1.13158 -0.228744 2.89855e-20)
(1.03045 0.353348 1.09409e-20)
(0.980359 0.0125336 0)
(1.14444 0.11837 4.93524e-22)
(0.638943 0.0182384 0)
(0.993239 -0.0266884 -4.43737e-22)
(0.467965 -0.0202458 0)
(0.712131 0.113948 0)
(1.00656 -0.0220767 -6.47202e-21)
(1.4197 0.176496 -8.36443e-21)
(1.17285 -0.0557288 6.24915e-22)
(0.534355 -0.505896 0)
(1.13806 -0.151593 1.62462e-21)
(0.79879 0.363854 7.44367e-20)
(-0.0348893 0.0202277 1.03602e-21)
(1.24306 -0.000322912 6.58429e-21)
(1.22503 0.0478156 -5.15544e-21)
(1.25664 -0.0606018 8.0954e-22)
(0.80085 0.00727858 -5.84544e-21)
(0.0648535 0.0169234 3.30678e-20)
(-0.0155563 -0.115115 -5.74722e-20)
(-0.198381 0.0221182 0)
(-0.21125 0.159583 0)
(1.20992 -0.625977 3.52323e-20)
(1.15683 -0.0268607 -4.37198e-22)
(0.911511 -0.47522 -4.84547e-20)
(1.06704 -0.0139107 9.49558e-21)
(1.3467 0.19916 2.70483e-20)
(0.596309 0.414127 0)
(0.242562 0.403969 -1.22048e-19)
(0.589678 0.463133 0)
(-0.0869 0.0662782 0)
(1.13976 -0.48639 0)
(-0.0372593 -0.0875742 8.51352e-23)
(1.1834 -7.46052e-05 0)
(0.621801 -0.017599 1.09556e-20)
(0.585613 0.677661 1.9763e-20)
(1.18679 0.00572955 -7.0171e-21)
(-0.02669 -0.168172 -1.22463e-19)
(0.276295 -0.292057 1.46965e-20)
(0.445736 0.142311 -1.21943e-20)
(1.20239 0.10018 0)
(1.34568 0.354272 2.62615e-20)
(1.20965 0.556677 4.355e-22)
(0.163036 -0.0197363 -1.9542e-20)
(0.974302 0.112126 2.54226e-20)
(0.947121 -0.0356038 1.35283e-21)
(0.909705 0.024116 -1.72917e-22)
(-0.00746059 -0.0454705 0)
(0.659003 -0.673381 -2.91518e-20)
(0.612617 0.183167 0)
(0.158717 -0.146834 0)
(-0.0394024 0.0205522 0)
(0.0362257 -0.183357 -4.73627e-20)
(1.25058 0.00905815 -7.57892e-21)
(-0.0365629 0.00450005 0)
(-0.0212198 -0.0180279 0)
(1.44578 0.121407 -4.75056e-20)
(-0.0383309 -0.119548 5.50652e-20)
(0.112945 0.223342 -1.04343e-19)
(0.385183 0.010042 0)
(0.172989 -0.293812 8.08395e-20)
(1.12454 -0.243314 0)
(1.00532 -0.291069 0)
(0.0356204 -0.151853 1.16985e-19)
(1.15017 0.0450958 -2.42961e-22)
(1.11545 0.334021 3.17412e-20)
(0.260783 0.0261298 4.16808e-20)
(0.412092 -0.532808 -3.3757e-20)
(1.23035 0.0913819 0)
(1.19884 0.18811 1.89589e-20)
(1.20379 0.209506 -2.3289e-20)
(0.101593 0.0739092 -2.38433e-20)
(-0.0611443 -0.119729 0)
(1.0732 -0.0536825 -1.93758e-20)
(1.10961 -0.225605 -1.43119e-20)
(0.590676 -0.423596 0)
(1.0999 -0.152645 -2.52527e-20)
(-0.159722 0.134187 0)
(0.552657 0.0200073 0)
(1.36603 0.0731579 2.83081e-20)
(1.0063 0.043996 5.68467e-22)
(1.06486 0.731228 -2.2223e-20)
(0.23026 -0.392766 1.28325e-19)
(1.13963 0.0493869 1.46884e-21)
(1.20346 0.0827624 -3.1054e-21)
(-0.0372492 -0.0249993 2.63547e-20)
(0.776639 0.72144 3.54211e-20)
(1.37163 -0.367718 -1.4014e-20)
(0.219014 0.375584 8.29993e-20)
(1.09826 0.017355 0)
(0.0550221 0.0727526 -4.31267e-21)
(0.919597 -0.649448 3.25302e-21)
(0.889136 0.63313 -1.09357e-20)
(0.580953 -0.0334726 -6.96204e-20)
(1.14579 -0.000209993 -8.83754e-21)
(1.07655 -0.0807398 6.75722e-21)
(1.16188 0.0235343 3.67116e-21)
(1.10343 0.121713 7.0777e-21)
(1.13538 -0.120314 0)
(0.891543 0.103534 1.23265e-20)
(0.87645 0.453688 0)
(1.2177 -0.0244444 -3.92863e-21)
(1.1641 0.117428 3.83124e-21)
(0.74296 0.261293 0)
(0.514219 0.108149 9.69664e-20)
(0.882835 0.699125 -1.15048e-21)
(1.06846 0.284222 -2.43768e-20)
(1.04093 -0.00770741 1.23312e-20)
(0.410976 0.472804 0)
(1.31847 -0.476956 0)
(0.574604 0.154085 3.71533e-21)
(1.25029 0.498284 0)
(-0.0189662 0.0310387 -3.70595e-20)
(1.30263 -0.416783 -1.39133e-20)
(1.15386 0.500475 0)
(0.452287 0.197269 1.73571e-19)
(1.11015 0.312348 -1.05816e-19)
(0.828697 -0.658357 -2.445e-20)
(1.15318 0.0176659 1.2284e-21)
(0.903134 0.148295 7.10685e-20)
(1.08227 0.165946 6.05315e-20)
(1.05881 0.69351 3.08135e-21)
(0.916507 -0.451756 6.34768e-20)
(1.40349 0.199373 2.67896e-20)
(1.13204 0.00979462 -1.58528e-21)
(0.00561722 -0.0841056 1.01867e-19)
(1.10254 -0.715731 3.30803e-20)
(0.886775 -0.736476 4.90709e-20)
(0.256639 -0.358057 0)
(0.974394 -0.15315 7.26604e-20)
(0.359201 0.287147 -4.50488e-19)
(-0.0431057 -0.00726782 3.28082e-20)
(0.224258 0.00927167 1.84449e-20)
(0.708179 -0.0593643 -8.16919e-20)
(1.06817 0.518216 0)
(0.985981 0.215066 8.65564e-20)
(1.08424 0.0315667 4.65562e-21)
(0.900434 0.429167 -9.59708e-20)
(0.799364 -0.742281 -7.41732e-21)
(0.928031 0.0131181 -4.9927e-20)
(0.968939 0.47742 0)
(1.1039 -0.0946464 6.48373e-21)
(1.40371 -0.518485 1.48591e-20)
(1.24127 -0.343287 1.06416e-20)
(-0.268757 0.222424 2.83586e-20)
(0.195667 -0.0207788 -1.84121e-20)
(0.980339 -0.124455 -5.90673e-20)
(0.346431 0.508404 0)
(0.914515 0.00480349 3.97803e-20)
(1.144 0.628514 6.59874e-20)
(-0.0103147 -0.11596 1.72723e-19)
(-0.0609522 -0.062562 -2.18163e-20)
(-0.087665 -0.181072 4.33995e-20)
(1.09822 0.0257497 -6.42474e-21)
(1.15742 -0.469755 0)
(1.08563 -0.749975 -3.72445e-20)
(0.693777 0.333649 0)
(0.105408 -0.113615 -1.30474e-19)
(1.1519 0.0414472 3.64196e-21)
(-0.0416792 -0.179103 -3.282e-20)
(1.04687 0.0567209 -1.17734e-20)
(0.108505 0.0152735 4.8198e-20)
(0.832641 0.121351 0)
(1.34256 0.0473797 4.40722e-20)
(0.0210091 -0.00637086 -2.09446e-20)
(-0.250188 0.132924 -3.36812e-20)
(-0.24634 0.147309 0)
(0.0873547 -0.0233245 0)
(1.30053 0.0298249 -1.40187e-20)
(0.400789 -0.0110217 1.68957e-19)
(1.29097 -0.739234 -2.97374e-20)
(0.855254 0.158083 3.77941e-20)
(1.06254 0.244844 -3.50463e-20)
(0.376609 -0.58051 1.38334e-19)
(1.52323 0.282614 -2.75315e-20)
(0.0983393 -0.114302 3.98678e-20)
(0.20594 0.284146 2.00965e-19)
(0.118989 -0.0700655 -1.48345e-19)
(0.953998 -0.5055 -4.28286e-20)
(1.43577 0.384761 2.81311e-20)
(0.580083 -0.695815 4.72467e-20)
(1.10767 -0.076529 -6.94409e-21)
(0.34495 -0.00684249 7.16426e-20)
(1.16461 0.286639 -4.20731e-20)
(0.654219 0.623819 -4.37552e-20)
(1.36554 -0.633032 0)
(1.39999 0.513893 2.96518e-20)
(1.06891 -0.539629 -1.32048e-20)
(1.37228 0.599382 -8.03274e-20)
(1.15822 0.0144127 0)
(-0.0445337 0.0150566 0)
(1.23673 0.719466 0)
(1.14445 -0.0583929 -1.08307e-20)
(0.750755 -0.317512 -2.07447e-19)
(0.478272 -0.101595 0)
(-0.0523878 -0.00756112 -2.23504e-20)
(1.0254 -0.250088 9.72914e-20)
(-0.23951 0.208283 0)
(0.32179 0.00405737 1.24378e-20)
(1.129 0.021192 0)
(1.39405 0.272256 0)
(1.1692 0.017238 -1.31548e-21)
(0.365792 -0.314169 0)
(1.00943 0.145619 4.16951e-20)
(1.29091 0.284528 0)
(-0.0844412 -0.0471867 6.14226e-22)
(0.819946 -0.412711 0)
(1.49605 0.341189 -4.1809e-20)
(1.22797 0.361227 5.94785e-21)
(0.831089 0.630589 -1.0546e-20)
(1.0051 0.154935 -9.55183e-20)
(0.971937 -0.210688 -4.74859e-20)
(1.43231 0.293842 2.45789e-20)
(0.945323 0.0723121 0)
(0.56468 -0.0883226 0)
)
;

boundaryField
{
    FrontBack
    {
        type            empty;
    }
    Top
    {
        type            noSlip;
    }
    In
    {
        type            fixedValue;
        value           uniform (1 0 0);
    }
    Bottom
    {
        type            noSlip;
    }
    Out
    {
        type            zeroGradient;
    }
    circle
    {
        type            noSlip;
    }
}


// ************************************************************************* //
