/*--------------------------------*- C++ -*----------------------------------*\
| =========                 |                                                 |
| \\      /  F ield         | OpenFOAM: The Open Source CFD Toolbox           |
|  \\    /   O peration     | Version:  2412                                  |
|   \\  /    A nd           | Website:  www.openfoam.com                      |
|    \\/     M anipulation  |                                                 |
\*---------------------------------------------------------------------------*/
FoamFile
{
    version     2.0;
    format      ascii;
    arch        "LSB;label=32;scalar=64";
    class       volScalarField;
    location    "242.5";
    object      p;
}
// * * * * * * * * * * * * * * * * * * * * * * * * * * * * * * * * * * * * * //

dimensions      [0 2 -2 0 0 0 0];

internalField   nonuniform List<scalar> 
808
(
-0.03423813036032567
0.04456393640665696
-0.01179932118561844
0.03672374697253777
-0.2989403368871092
-0.05498725943654593
-0.01493599878632372
-0.02385027853418259
-0.1966077881395861
-0.08373995795974856
-0.009571471160494041
-0.2537354619264083
-0.03058266254788609
-0.01337315421458682
-0.1243104255550253
-0.01403667915566909
-0.1425387390838393
-0.0136053672426708
-0.01288713112408952
-0.05561245153336614
-0.006702357642495456
0.1173153295119219
-0.06222362163034296
-0.07158816885473927
0.1750801996179453
-0.09965738419498553
-0.1522576475130346
-0.02038348262360364
-0.01751107626523121
-0.02593111598481837
-0.02024544592455806
-0.05838867951108588
-0.02296207621471955
-0.01691078387961006
-0.09911907645256261
0.3448340265392526
-0.03916278402671036
-0.01679226096128481
-0.02288715480285233
-0.02657445850202354
-0.0899963802324146
-0.1263448009117501
-0.05177131226784353
-0.02085041559515026
-0.05548754153215445
-0.04130433645586991
-0.01223069469166256
-0.1840982651138485
-0.02701033192338983
-0.2037479350297845
-0.01641461660056832
-0.06714116647490423
-0.06064657927282411
-0.01519151874015491
-0.1933667927382826
-0.0283465266781522
-0.01090349274453259
-0.01518227186841198
-0.1001555283249224
-0.03978102632144995
-0.09891954394916383
-0.1258385677064189
-0.0138216692250115
-0.1274614869488934
-0.01704494963883896
-0.05157420517043779
-0.1626731977365562
-0.03558516276848706
-0.015128803841206
-0.440336502714383
-0.02659467346104136
-0.3025273441922137
-0.02167767337234947
-0.02048984128811585
-0.06420025311338662
-0.01771943957351915
-0.04254268766567749
-0.3645752750818627
-0.03584011996065726
0.03977775571864819
-0.09171745051850748
-0.01707049117366682
0.05697627420517407
0.04519757979780394
-0.01697969396631023
-0.05216999004417863
-0.5421118614169653
-0.2264027418890347
-0.05212231873428244
-0.1127925685376698
-0.05649685927346633
-0.1321812863325759
0.03930396184314953
-0.02538134734701721
-0.0617304711525838
-0.1163098043313081
-0.03840031671995535
-0.0523699602395991
-0.1157033501079221
-0.1368235742246916
-0.05245348396416098
-0.04735986859921606
-0.05433219579486598
-0.04479439808272784
-0.05728848269943606
-0.07447516410804722
-0.04147697783642945
-0.01122787702396675
-0.04030954325817569
-0.1237895633041154
-0.0504068212719869
0.08203774892422991
-0.04242426741337785
-0.008269230701808784
-0.02775882587175899
0.180760428403063
-0.03879928851341372
-0.2686836626793718
-0.02040973953835297
-0.05347072539640348
-0.03053401938079979
-0.04866629454236957
0.01349588144403171
-0.04856284402109515
-0.0355323909064379
-0.2177957671038918
-0.04104084214594284
-0.004986100975636617
-0.07573231131400723
-0.06874446217764742
-0.1424187109310284
-0.02088828504781395
-0.07498249263068867
-0.04297111165604919
-0.02279548166355505
-0.0156260141921387
-0.006388818004409731
-0.007274693256549967
-0.05241814399678425
-0.04971836213420509
-0.2169129154168692
-0.05642240780730646
-0.008426075132292824
-0.02230306583149493
-0.147291433294206
-0.002797470508297164
-0.07615583370155754
-0.02188790394367318
-0.0009758408822318646
-0.01102743604508169
-0.03335721070406902
0.09399421016852179
-0.03863825741394438
0.2519578089216583
-0.2694020864496385
-0.1323446578576548
-0.03744277268300465
-0.09100795889067217
-0.009411439885602293
-0.1134452842203222
-0.1794069091996202
-0.2195607784266621
-0.1769386024579546
0.05639269008548202
-0.06290727244506157
-0.02039577300437422
-0.06685840577947498
-0.1656901359032622
-0.0234569642288728
-0.0183653426047128
-0.05188268879603102
-0.01965503927593914
-0.006798989843741312
-0.1073459877100668
-0.02303189836178609
-0.04501887063343642
-0.07002575526625186
-0.160656149236343
-0.03341546268836286
-0.3899334148563658
-0.01784909525915846
-0.2255871412216218
-0.04423848952552195
0.03226280640552609
-0.1063526814155668
-0.01551275621920012
-0.04246410080048586
-0.1039053434209519
-0.01767220025084423
-0.09516445229944449
-0.2079161362805439
-0.0715997227174483
-0.02381568011393883
-0.04804168586780833
-0.04271732896428658
-0.2047297489493045
-0.02202035391788379
-0.01906357364999179
-0.0112985549074272
-0.05618538233673726
-0.05055665510546929
-0.02236916225849167
-0.02081450506435744
-0.2418411973901547
0.1272991081059989
-0.2046108779842608
-0.1969199186377942
-0.01179121602961305
-0.01142513279480174
-0.06704398530000104
-0.01011849697952608
-0.5053273269673505
-0.1200376539669047
-0.0191544463636873
-0.000181878417803661
-0.02400397468757162
-0.2815162824638002
-0.2781348727389302
-0.007074999584736533
-0.01718496240356027
-0.001272398502244478
-0.3490060526663268
-0.02832158375745796
-0.02916580310776355
-0.01251919691878453
-0.01966029226328289
0.04963819633002056
-0.1104537227468499
-0.01421530193919201
-0.02081036734140984
-0.04439997727600354
-0.01823821072180599
-0.01617228338829375
-0.02344482792399688
-0.06759675510753953
-0.01149071321986338
-0.01903473278176143
-0.008602173436783782
-0.0007142618360240912
-0.02950285655584852
-0.00174797157057501
-0.002166461306530662
-0.005844594013889223
-0.02559938711585524
-0.007958147167538126
0.001472108364568608
-0.004279168807061851
0.001361433770291115
0.002538314721631458
-0.008892357714766715
-0.1400773632719938
-0.002978348610309233
-0.001451135547430934
-0.0482215154629324
-0.02158472573720123
-0.02428691428020121
-0.01431693247295787
-0.006175054205491718
-0.0209004444758155
-0.03904487755120783
-0.01418357456653356
-0.01290799455552231
-0.01146372938293121
0.008673723610759443
-0.01016163477507368
-0.01184036212592674
-0.01150124597853163
-0.01060886563128935
-0.01034201073119978
-0.01212908879405237
-0.01392689665247503
-0.3042318070162213
0.05966775386158024
-0.01584728465685796
-0.01535705240051301
-0.01292308613960242
-0.01185376895354925
-0.008734727609837394
-0.09647555575046012
0.011968094917607
-0.01364659364328906
-0.01419672549944524
-0.01062962229286668
-0.0517489474680758
-0.01028682901614209
-0.01356120333069272
-0.01008765976321676
-0.0002379607143026211
-0.0107982136088779
-0.01213736357216217
-0.0246053693274576
-0.01569257841330306
-0.01188241613488666
-0.01352517005736447
-0.007404304614377585
-0.01214322971218963
-0.01174916829469582
-0.05869824362321541
-0.01337489461286336
-0.01128423112439366
-0.00888446414683438
-0.0149848138805742
-0.01366869564852666
-0.01563269123740361
-1.368305863895554
-0.09958931011561005
-0.01332794125088934
0.02603406568286659
-0.1622540219648138
-0.09155677506352511
-0.01193055596637861
-0.01405385340809875
-0.2378366611818158
-0.02911061192065011
-0.01860883066477494
-0.0115378770584347
-0.01985830529459997
-0.01024953308512191
-0.03076283499856326
-0.4105699061643519
-0.01242269506602786
-0.01410479543186236
-0.004707982129357718
-0.01123199216197684
-0.01067488190400988
-0.01412775277866658
-0.006905424773272309
-0.02651177096039383
-0.01164368061711741
-0.1693674910263306
0.01844123320625264
-0.007494659591274219
0.003977455111766955
0.01361258138229182
-0.04810179788604221
0.02852887835047909
-0.01333204224796212
-0.1329491346103273
0.2826871587410485
-0.007360925869709089
-0.01357474729905099
-0.008211538985119034
-0.03266042854484024
-0.1243397205069946
-0.01225551504324557
-0.01216225587531465
-0.01682367961676596
-0.0135460500187202
-0.0412975127601797
-0.2177283239206757
-0.01031288752401732
-0.042605837286808
-0.03922902444583814
-0.1721245814954909
-0.1604125661294347
-0.1345250398475058
-0.2315573411057473
-0.005868045717704096
-0.02101637044174596
-0.01420956962313947
-0.01291276748703491
-0.03329401631762547
-0.0244876314294408
-0.01428125282339089
-0.0149068843498751
-1.072772770573519
-0.006121621595229831
-0.01330507221502886
-0.01834530145427607
-0.02415251312609879
-1.944607266579884e-05
-0.01480622218519575
-0.02618829147357863
-0.1514820145520664
-0.01360078491514361
-0.02196454368557096
-0.01391086370968282
-0.001158875232533536
-0.1781594811539564
-0.01287310800780862
-0.1452800979101401
-0.01588259674960399
0.00364739242912152
-0.01451318496575591
-0.02356773013304782
-0.01562987480840498
0.005015848302590843
-0.2730861455773314
-0.02596135275470922
-0.01610276648721471
-0.003592846723198908
-0.009926023650027725
-0.02992136753154025
-0.01414111770098132
-0.02055122267235204
-0.02101383106354886
0.01483273165940359
-0.09877156899049443
-0.02167621257637965
0.009322494584153558
-0.05510469980332479
0.1717075824880246
-0.1050201211574013
-0.316947529934456
-0.03094266376018847
-0.02562676566346745
0.1509241809437711
0.07777950823642206
-0.003637557479112871
0.04997011857531168
-0.01530261422259553
-0.01408358719144986
0.002427678056484593
0.009648730401992345
-0.06560596040956515
-0.005816301592767741
-0.05668489520296276
-0.02235851375907953
-0.01572944477878063
-0.03653749830144708
-0.03291403694116115
-0.006652114151335493
-0.01506680584472291
-0.03756709150903717
0.03624920147392945
-0.03881864807270027
-0.01388612649816962
-0.1182145295149167
-0.03167339030946276
-0.03920249350255364
-0.6710636162962409
0.0201384943083754
-0.01038647795505635
-0.005784541334052015
0.1636408713120819
-0.08923087682201113
-0.03531000231117015
-0.2436440228959869
-0.01630061340930465
-0.01637351839754652
0.07348950510902987
-0.1811297644128853
-0.2339729662493973
-0.1930440084588773
-0.6798190815056264
0.001978488626668601
-0.01831946178225255
-0.01683588242039805
-0.08429031394745456
0.1184625944377411
-0.02088226793585083
-0.2303426744121661
-0.03551442918035511
-0.006656936815596213
0.2803552452738883
-0.01117220494967335
-0.09182384145246433
-0.1515302584722023
-0.00350871496484073
-0.04093223873726944
-0.05221539742155432
-0.2020780016432827
-0.008233598624146641
-0.0406237938313101
-0.002596304793359154
-0.5457153801627134
-0.1946328417230501
-0.1778508412994747
-0.02296918551300574
-0.007722195084447412
-0.06116896417851408
-0.05712157279893693
-0.01382707160130968
-0.06867897502911458
0.004517251563735564
-0.01804654537900061
-0.09350699217454918
-0.2725121951247984
-0.00760400332711721
-0.02598755248452945
-0.02175638141281799
-0.07539546201135465
-0.08967392000733583
-0.08888986476234691
-0.01204915286543416
-0.9170658821107553
0.1619907939792825
-0.07909068613875699
-0.2505278866484587
-0.04185023956880907
-0.01012608606802562
-0.2553668992376353
-0.1929222550222758
-0.03162287528427104
-0.1254749628511758
-0.01964500429238284
0.5637061663189595
-0.02444744202598242
-0.2239105422079225
-0.02555109598398906
-0.005558029534156302
-0.01171972245401649
-1.244630305884998
-0.180352754246001
-0.2288444851402829
0.005261509543994621
-0.0384396690630245
-0.2479841875190179
-0.06632887449875313
-0.0515620179026853
-0.1451000338716866
-0.1827613703098721
-0.06900316699534331
-1.219681823503929
-0.1474430023224267
-0.5304438349936677
0.07946181969552905
-0.006154114731977826
-0.02147861124740571
-0.04378401210518589
-0.03890868434931242
-0.02838465284023987
-0.1291762758575963
0.08110655173987655
-0.002042812378485326
-0.009947995553710638
-0.5723852510892479
-0.8555293845174375
-0.1796227145372434
-0.008251987542340029
-0.1349524834283349
0.0007852931723495198
-0.0001593022630015656
-0.002084856276849704
-0.0604036160332232
-0.2351572927233539
-0.01329725897311197
-0.1209594610524012
-0.157468981672918
-0.01318230601320886
-0.03510863839977257
0.02589829569943831
-0.05806132560439784
-0.07101463947093843
-0.4973930985720307
-0.2162499943285419
-0.0796840830767741
-0.07440157335517512
-0.01967795238005778
-0.1221915995148153
-0.1553928959594837
-0.07612337281887244
0.02280802063514259
-0.08599659014463544
-0.04940780069454412
-0.01487727269566699
-0.1072221720155083
-0.2768824989251704
-0.05838994449117788
-0.01825655037432172
-0.0006166201838342791
-0.01000839358592813
-0.01088707379942131
-0.2241315277491076
-0.01518371521503072
-0.2182980029930404
-0.01028461482253402
-0.0716802101517674
-0.004349693393817508
-0.02324683783603589
-0.3852697734799591
-0.9210781462072123
-0.01132054234160482
-1.041227123014286
-0.6069830140023655
-0.01049152948418239
-0.6632749075851538
-0.1832467584664674
-0.005986009297867553
-0.128026135727268
-0.0166959007203419
-0.1241892500350296
-0.0656963150547904
-0.08082139313091748
-0.005075671805588033
-0.002286669954780858
-1.346688432166938
-0.01143828860592223
-0.1783198046668331
0.0007453449945985734
-1.004267255714042
-1.244838404675674
-0.07934897860502305
0.01717343872714559
0.1645698396531032
-0.004485954744029188
-0.02304060489650318
-0.004185113586701252
-0.2475552360218806
0.365753748970974
-0.04152309193747841
-0.2129157541199828
-0.01492489330192694
-0.6488984203982565
-0.0731210741796071
0.1889782613618277
-0.2919442194884736
-0.05025228303643433
-0.06953851732746713
-0.01586026742398513
-0.02164466784428924
-0.5851652152567008
-0.147952749770886
-0.08860531242427834
-0.1245765881005201
-0.5507501720542356
-0.04469414235128927
-0.9012335279786865
0.0006341138112839958
-0.2413719626917178
-1.056731719914791
0.1636138423384726
0.289347082511213
-0.1819484118058013
-0.1894824788711714
-0.2138927361151587
-0.06677853892185535
0.02262280303722152
0.04402550702231709
0.003131849008652466
-0.1647334054803414
0.02601527402448301
-1.366135168575073
-0.08622991032780512
-0.4777594901863835
-0.3344361029548517
-0.2100750651992845
-0.1791969647292029
-0.01691426779797231
-0.0154531758309527
-0.1039365217853056
0.1744669829625174
0.3844930338484138
-0.2016241006819156
-0.1422512244400208
-0.2234896138191135
-0.06305441986099002
-0.1528971561553706
-0.1671887917633169
-0.1268681395415056
-0.1219002726403577
0.4634781670986272
-0.2754669051719352
0.4338570999538272
-0.5935858509731574
0.07259441310771904
-0.1967938265878239
-0.06703551224878267
-0.07674326633414795
-0.8884804627821826
-0.2148787678821543
-0.1926751662247409
-0.3511141391712919
-0.4627373254184871
0.5700534613122177
-0.2132541500580016
0.001935286862754541
-0.06833662828760308
0.3458713405354734
-0.03573267540342731
-0.1311644848566619
-0.1814152219700335
-0.06337371492230048
-0.01650139953241086
-0.1990211359376367
0.1979783073879791
-0.01290618567568409
-0.09757133576839382
-0.1740578246733547
-0.3204776367490718
-0.3097032807823953
-0.06933860708868546
-0.01010318121615653
-0.08195548814208001
-0.6485547980099695
-0.6760497059490346
-0.3327585770918509
-0.05844097464721913
-0.05028612240840998
-0.02502060697141708
-0.06904947958291517
-0.05592008162067973
-0.3636100604084277
-0.964401728988072
-0.01021745989255499
-0.08424358038456707
-1.145940941282494
-1.040742843057083
-0.1090492893574086
-0.04061368914684897
-0.06855563372329954
0.3882670516021193
-0.3403174379800644
-0.04908697396639151
-0.6040995447208269
-0.1255958792361224
-0.2497278363802576
-0.2137007370168408
0.4732869283073757
-0.6341483794765278
0.07681877897198366
-0.0290009689657435
-0.5649889204393702
-0.05333972326366258
-0.3660468858332847
0.1097375988012581
-0.1921535087589423
-0.06064988343437887
-0.1354266383792209
-0.3574546297456207
-0.08386007219307787
0.5160205215347858
0.08669003243337677
0.4693255453346803
-0.1007820939013146
-0.2041865958401211
-0.5158788922905962
-0.1342925939021989
0.02517594209600816
-0.05466043633160409
0.1000094862007294
-0.3017721537653157
0.2364670128664403
0.005597398758774476
-0.00297434545322766
-0.5087400729152242
-0.1827564352275667
-0.08279407778354793
0.5816616132806242
0.139433399399733
0.3424507491174541
0.2254489778207627
-0.5666536948517134
-0.191716685180345
-0.225609888049918
-0.2233523831131809
-0.06135683119460734
-0.6888029489781365
-0.1896681628073243
0.3044890115043795
-0.1895703616906299
-0.01143615486137491
-0.16490744581993
-0.01087766186687571
-0.1617693279778953
-0.4414097849077011
-0.07591389577415249
-0.2051266832840318
-0.07179516320965473
-0.0908956742930343
-0.1419003551672445
-0.07229818304481894
-0.44860584688987
-0.410492778270207
-0.02385844622180127
-0.07647759888780745
0.3305455782999715
-0.2498466424320794
-0.1793608965857559
0.523823068712238
-0.2027699025835726
0.0207577037214229
-0.4534475010105988
0.05137479324435768
-0.06038949604665732
-0.1391816427363281
-0.5888511329172872
0.1581826131050313
-0.5756972463480308
-0.5391369478342682
-0.1021574233036775
-0.5120819786310954
-0.03669353682080876
-0.1428632341436788
-0.4146226136834458
-0.01614714499808696
0.2883702977898856
0.4900032011342647
-0.1624873709564253
-0.006257901755173984
-0.08341880462987232
0.5251038279610764
-0.03273761727891526
-0.4430584248755227
-0.03232328607243622
0.462091031256528
-0.01638738915574645
-0.5480986584023928
-0.2486455486402663
0.1780239053578753
-0.3133517292543532
-0.1812321969621026
0.04792824997932012
0.03221136400053641
0.05598289262665887
-0.3021535443686716
-0.1599786239950248
0.4128587437633429
)
;

boundaryField
{
    FrontBack
    {
        type            empty;
    }
    Top
    {
        type            zeroGradient;
    }
    In
    {
        type            zeroGradient;
    }
    Bottom
    {
        type            zeroGradient;
    }
    Out
    {
        type            fixedValue;
        value           uniform 0;
    }
    circle
    {
        type            zeroGradient;
    }
}


// ************************************************************************* //
