/*--------------------------------*- C++ -*----------------------------------*\
| =========                 |                                                 |
| \\      /  F ield         | OpenFOAM: The Open Source CFD Toolbox           |
|  \\    /   O peration     | Version:  2412                                  |
|   \\  /    A nd           | Website:  www.openfoam.com                      |
|    \\/     M anipulation  |                                                 |
\*---------------------------------------------------------------------------*/
FoamFile
{
    version     2.0;
    format      ascii;
    arch        "LSB;label=32;scalar=64";
    class       volScalarField;
    location    "835";
    object      yPlus;
}
// * * * * * * * * * * * * * * * * * * * * * * * * * * * * * * * * * * * * * //

dimensions      [0 0 0 0 0 0 0];

internalField   uniform 0;

boundaryField
{
    FrontBack
    {
        type            empty;
    }
    Top
    {
        type            calculated;
        value           nonuniform List<scalar> 
15
(
142.2791659829593
133.5802977326094
138.0705031087703
144.4096570112112
159.7729194313383
131.3688696357097
140.1320963560619
135.3621937023493
153.440290325136
135.7418678829281
136.0970411325602
136.7695634736774
125.2540212980546
132.9066618847084
123.9483155649561
)
;
    }
    In
    {
        type            calculated;
        value           uniform 0;
    }
    Bottom
    {
        type            calculated;
        value           nonuniform List<scalar> 
15
(
155.5652278986558
158.1154812857371
141.0845713730772
142.0557256798933
141.1794703902584
148.4326357580249
142.7001203054864
143.1587562964295
143.4236648217912
134.0546426991516
125.7289556051933
141.551482032285
122.4094352703055
123.4905542195069
124.1351249423789
)
;
    }
    Out
    {
        type            calculated;
        value           uniform 0;
    }
    circle
    {
        type            calculated;
        value           nonuniform List<scalar> 
32
(
56.34120912524185
22.23839784098353
65.33472786658221
23.44680334082349
19.08357226868841
56.14568719513212
56.8087336662814
24.08531020489853
22.39491047034438
65.55866158288639
40.15206678122171
63.05777081254776
50.3141650374477
13.75297859572195
23.77676554435705
18.53019753394682
38.90982253392596
59.5886596312867
60.98340575582166
24.49625162007143
65.70042799908879
63.84307306219948
62.94028808890749
59.94828730982061
64.07714695036809
45.9192531263213
66.34431275689931
32.02365889008073
38.0503721630681
55.78233884388268
20.98011151484867
43.18660886226186
)
;
    }
}


// ************************************************************************* //
