/*--------------------------------*- C++ -*----------------------------------*\
| =========                 |                                                 |
| \\      /  F ield         | OpenFOAM: The Open Source CFD Toolbox           |
|  \\    /   O peration     | Version:  2412                                  |
|   \\  /    A nd           | Website:  www.openfoam.com                      |
|    \\/     M anipulation  |                                                 |
\*---------------------------------------------------------------------------*/
FoamFile
{
    version     2.0;
    format      ascii;
    arch        "LSB;label=32;scalar=64";
    class       surfaceScalarField;
    location    "6.2";
    object      phi;
}
// * * * * * * * * * * * * * * * * * * * * * * * * * * * * * * * * * * * * * //

dimensions      [0 3 -1 0 0 0 0];

oriented        oriented;

internalField   nonuniform List<scalar> 
1171
(
-0.944437
0.944437
0.767221
-1.06147
0.294245
-0.191294
-0.700777
0.892072
0.0555627
-0.0719215
-0.275681
0.347602
-0.767221
0.0489503
0.71827
0.882209
-0.185537
-0.696672
0.838132
-1.0048
0.166664
-0.352543
-0.0465238
0.399067
-0.0134951
0.609114
-0.595619
-0.502857
0.850807
-0.34795
-0.424465
1.00494
-0.166807
0.285936
0.0850623
-0.370998
1.00706
-0.00212107
0.344423
-0.0584871
1.01287
-0.00580779
0.615099
-0.806393
-0.768937
0.586785
0.182152
0.234207
-0.737064
0.555414
-0.914079
0.358665
-1.07568
0.668301
0.40738
-0.637285
0.62379
0.0348008
-0.253851
0.21905
-0.000390534
-0.644089
0.64448
0.461112
-0.507636
-0.866663
0.899525
-0.0328616
1.02381
-0.0109452
0.894515
-1.08589
0.191375
1.02362
0.000196931
-0.68724
-0.0816971
1.23521
-0.823522
-0.411684
0.156953
-0.0906774
-0.403329
0.494006
-0.273858
0.183475
0.090383
-0.590559
-0.470907
0.991597
-0.0970818
0.0230066
0.819072
-0.842079
0.546641
0.688565
0.518437
0.00806824
0.453044
-0.785879
-0.105795
0.891674
0.521848
0.249091
-0.770938
-0.0248184
0.670014
-0.645196
-0.504115
-0.571566
-0.389053
-0.696837
0.019663
0.250621
-0.270284
-0.950119
0.00983889
0.94028
0.372227
0.0268401
0.807851
0.0743576
-0.593769
-0.043516
0.0564016
-0.842281
0.0789848
0.885246
-0.96423
-0.401743
0.0196499
0.382093
-0.673134
-0.276985
-0.651987
0.730972
0.638601
0.212206
-0.587551
0.979583
-0.838479
-0.141105
-0.111973
-0.0252192
0.137193
-0.454814
-0.052822
-0.245392
0.883993
0.00797224
0.424307
-0.432279
-0.482962
1.00481
0.697242
-0.803037
0.394715
-0.0656136
-0.329101
0.926789
-0.926789
-0.830913
0.0444363
-0.320117
-0.711996
0.735002
-0.0389838
-0.147711
0.186695
0.847169
-0.0280973
0.996302
-0.747211
0.220402
-0.319438
0.0990363
0.897088
-0.089237
-0.67474
-0.0196759
0.694416
0.148554
-0.232246
0.0836919
0.772668
-0.958205
-0.442975
0.311323
0.131653
0.648838
-0.649228
0.956393
-0.398177
-0.558215
0.567339
-0.692913
0.0344308
0.658482
0.12615
0.63885
0.0583088
-0.697159
0.141083
-0.0966465
-0.512629
0.110886
0.0312546
-0.903364
0.872109
-0.559027
-0.750069
0.0628293
0.500852
-0.0478079
0.276989
-0.827663
0.550674
0.420495
0.579505
0.606857
-0.550456
-0.402687
0.00139084
0.401296
0.690555
0.236235
-0.688401
0.663583
0.0975229
0.821618
-0.00652376
-0.668216
-0.7622
0.793455
0.619174
0.0831737
0.364056
-0.44723
-0.17398
0.551021
0.118993
0.931752
-0.854677
-0.0770747
0.63616
0.343423
-0.435151
0.669765
-0.586591
0.408175
0.147239
-0.036974
-0.569223
-0.203614
0.772837
-0.168076
-0.758714
-0.610507
0.361316
0.249191
0.659498
-0.666022
0.308618
0.951356
0.0449458
-0.7622
-0.128444
0.0164702
0.697242
0.739131
-0.739131
0.840535
-0.830294
-0.010241
-0.451416
0.871911
-0.191549
-0.32108
0.759968
-0.668348
-0.0916202
-0.788219
0.218995
0.12325
-0.717019
0.803037
-0.977017
-0.217804
0.20236
0.0154438
0.142428
-0.957208
0.81478
0.545523
-0.0270857
-0.298663
0.597817
-0.299153
-0.748386
0.890814
-0.17898
0.6651
-0.784334
0.119234
0.95694
-0.560302
-0.396638
0.702157
-0.0814309
-0.0251437
0.0269966
-0.00185285
-0.793585
-0.777582
0.0768048
-0.711996
0.574263
-0.554613
0.12213
0.646487
-0.768618
0.772441
0.171996
0.495758
0.504242
-0.120679
-0.65118
0.771858
0.941258
-0.00950584
-0.702157
0.793455
0.1799
-0.433751
-0.02484
-0.00272866
0.0275686
0.675133
-0.445641
-0.229492
0.71827
-0.000715787
-0.112483
0.545435
0.129698
-0.0179597
0.00144846
0.0165113
0.00119726
-0.026341
0.157258
-0.222872
-0.918111
-0.00585136
-0.124656
-0.0605456
0.0982017
0.759418
0.751842
-0.172337
0.717137
-0.595006
-0.167808
0.38821
0.70344
0.01483
0.23316
-1.06345
-0.977017
0.324419
0.735002
-0.167279
0.0195681
-0.753567
0.948972
-0.195406
0.481789
-0.099696
0.790678
0.307087
0.317397
0.0270253
-0.680249
0.680249
0.223351
0.668323
-0.0347567
0.459063
0.459249
0.0371473
-0.0619873
0.528282
0.01724
-0.748386
0.560426
0.199543
0.0199092
0.00708739
-0.70344
0.190017
0.758956
-0.0240612
-0.771708
0.795769
0.746486
-0.820975
0.0744892
-0.772441
-0.0397795
0.0548537
-0.0150742
0.0859214
-0.129239
-0.108525
0.237764
-0.0106484
-0.00731132
0.697253
-0.721314
0.821344
0.0707274
-0.307942
-0.503746
0.811688
-0.000480114
0.000480114
0.203751
0.465833
0.624499
-1.09033
-0.176787
-0.550265
0.727052
-0.0180677
0.204762
0.38411
-0.235556
0.98789
-0.522057
0.688588
1.0421
-0.417601
0.192561
0.890814
0.724006
0.22384
0.675685
-0.758714
0.319751
-0.0332774
0.017565
0.0157124
0.815808
-0.00162369
-0.814184
-0.718198
0.718395
0.548584
-0.718198
-0.724006
0.718395
-0.0395634
0.850932
-0.029588
-0.690555
0.620896
0.0696585
0.522755
0.586331
-1.10909
0.473293
0.514597
0.560578
0.460025
-1.0206
0.5215
0.5206
0.620896
-0.519953
-0.450373
-0.582688
-0.517489
-0.137846
-0.00740912
0.00740912
0.506566
0.526844
-1.04433
0.700603
-0.336547
-0.924213
0.363911
-0.685024
0.408039
0.00022756
-0.846748
0.846521
0.453179
-0.0218993
0.837707
-0.959929
-0.879433
0.0625096
0.816923
0.54233
-0.343872
-0.198458
0.670589
-0.767671
0.891823
-0.846547
-0.0452764
-0.0105571
-0.84412
-0.139793
0.740468
-0.600675
-0.874868
0.864311
-0.790226
0.745633
0.0445931
-0.863151
0.0334889
0.829662
0.00446301
-0.00494312
0.424228
0.0681056
-0.875383
0.807277
-0.778701
0.658023
0.938646
0.0672741
-1.00592
0.0592129
-0.0285413
0.429837
-0.361192
0.041754
0.868877
-0.86865
-0.792423
-0.873
0.02888
-0.100159
-0.866118
0.0195717
0.670992
0.0461449
0.0419796
0.500351
-0.814259
0.847748
0.558215
-0.868648
-0.807594
0.0433384
-0.0300141
0.83595
-0.805936
-0.0195976
-0.822437
0.573029
0.173457
-0.0216912
0.859399
0.92682
0.886328
-0.866756
0.0481967
-0.0481967
-0.103793
-0.369537
0.0256642
0.334756
-0.0103367
0.316682
0.839801
0.00189303
-0.0125415
0.663472
0.336528
0.802845
-0.590559
-0.732381
-0.80756
-0.685534
0.685534
-0.207114
-0.113004
0.637334
-0.857604
0.220269
-0.478476
-0.56341
0.291841
-0.988678
-0.86305
0.817774
-0.824499
0.853379
0.659803
0.152459
-0.812262
-0.762967
-0.188982
0.817786
-0.628803
0.0232494
-0.00239895
0.00554223
-0.00314329
-0.203356
-0.16618
0.929175
0.71615
-0.340583
-0.375567
0.517692
0.729596
-0.506245
0.0123718
-0.28623
0.0418822
0.733389
-0.775271
-0.328875
-0.115119
0.128622
-0.937274
0.12309
-0.705145
0.0950062
0.694485
-0.789492
-0.801129
0.0959843
0.65345
-0.768569
0.234065
-0.363304
-0.754646
-0.00832046
0.367796
0.723127
-0.053362
0.00314121
-0.00314121
-0.00596066
0.0142597
-0.0475371
-0.0223932
0.0242862
-0.708502
0.296904
0.704763
-0.768843
0.0640801
-0.621201
0.716207
0.748734
-0.0952834
-0.652173
-0.148957
-1.06116
0.0208667
0.0273301
-0.666619
-0.791966
-0.792789
0.381104
-0.216421
0.288281
-0.0718601
-0.621043
-0.0455761
0.523656
0.719035
-0.0539661
-0.00657945
0.945594
0.504376
0.17122
-0.675596
-0.583048
-0.0379956
-0.0132699
0.0108709
0.650949
-0.854562
0.0059163
-0.0059163
-0.675195
0.70146
-0.0262648
-0.541068
-0.1222
-0.66396
0.169019
0.602839
-0.0578471
-0.852942
-0.390949
0.331223
0.0597255
0.686733
-0.622653
0.341601
0.248751
-0.590351
-0.141017
-0.668378
-0.121114
-0.17082
-0.221929
0.464301
-0.517123
0.153102
0.735227
-0.888329
0.567339
-0.228382
0.011961
0.162548
-0.384477
0.595174
-0.0913019
-0.503872
-0.286304
0.305487
-0.0191829
0.532865
0.167738
0.0803561
-0.310059
0.167695
0.142364
-0.0940816
-0.034362
-0.289631
-0.0684659
0.143631
-0.0751648
0.811677
-0.460078
-0.08099
0.542093
0.265741
-0.606324
0.585129
-0.585129
-0.268127
-0.584429
-0.256837
-0.584429
-0.624815
-0.84077
0.172422
-0.434414
0.782876
0.0405614
0.173943
0.549184
0.106683
0.12224
0.00795016
-0.13019
-0.10319
0.602622
-0.919081
0.415335
-0.0459962
0.103539
-0.0575431
-0.724087
-0.173844
-0.534996
0.706216
-0.515358
-0.0890731
-0.295404
-0.339438
-0.0806601
0.0806601
0.0526519
0.00220185
0.143106
0.253919
-0.706808
0.171812
-0.0284313
0.475414
0.524586
0.738379
0.0470563
0.0131106
-0.0601669
-0.3041
-0.548842
-0.541064
0.113549
-0.118598
0.00504896
-0.10729
-0.412382
-0.117178
0.720017
-0.543334
-0.180753
-0.114292
0.0570565
0.172162
-0.640582
-0.199163
-0.200783
-0.0220883
-0.486362
0.429329
0.0570326
-0.050331
0.296769
-0.868335
-0.515007
0.616826
-0.833429
0.692411
0.430522
-0.0342089
0.0612761
-0.0270672
0.093554
-0.627813
-0.00246374
0.630277
-0.891457
0.620576
-0.72437
-0.101307
0.00837964
-0.00837964
-0.297687
0.420918
0.00891918
0.0212449
0.0258114
0.565812
0.674997
-0.752072
0.0185163
0.00673971
-0.0035985
0.00521226
-0.00521226
-0.472293
0.640031
0.0142211
-0.0142211
-0.775007
-0.00979478
0.0142578
-0.498599
0.670411
0.522478
-0.548742
0.0709241
-0.0709241
-0.016648
-0.0453393
0.00397906
-0.917315
0.520677
-0.544153
-0.00494312
0.576269
0.034412
-0.610681
-0.696478
0.153144
-0.317711
-0.0128199
0.330531
-0.0305636
-0.0234026
-0.597432
-0.0303816
0.0273301
0.00556736
0.000348936
-0.00298499
0.00298499
-0.395351
0.320186
-0.480291
0.137784
0.665061
-0.126412
0.00240103
-0.00240103
0.509845
-0.140232
0.00885975
0.0189504
0.000269137
0.596455
-0.736687
-0.71038
0.62939
-0.123235
0.335459
0.747778
-0.00596066
-0.10184
0.108927
-0.70205
0.553311
-0.395563
-0.120209
-0.0244026
-0.0261962
-0.00928264
0.476489
-0.090253
-0.413619
0.664314
0.00219686
0.00693629
-0.00693629
-0.219463
-0.141432
-0.582053
0.622614
-0.142734
0.507564
-0.161505
0.776603
0.698606
0.00556736
-0.654403
0.586123
0.07418
-0.0715971
-0.00258287
0.579059
0.101105
-0.0127188
0.069926
-0.0572072
0.0097338
-0.0097338
-0.831537
0.0227274
-0.0464599
0.0654103
-0.0865097
0.0865097
0.00673971
-0.00355963
0.701985
0.0569703
-0.317408
-0.0949744
-0.517476
-0.0401122
-0.0676209
0.0676209
-0.0768149
0.0824316
-0.0824316
0.0277753
-0.0277753
-0.35483
-0.080321
0.241335
0.0699873
0.0357678
-0.77679
-0.0676419
0.161376
0.0185237
-0.252297
0.0817505
-0.0817505
-0.461158
-0.0559645
0.231324
-0.012274
0.00258237
-0.615425
0.654988
0.0124493
-0.0892642
0.0460025
-0.0913418
-0.0115075
-0.158552
0.17006
-0.150662
-0.212641
-0.0818223
0.0818223
0.0549049
-0.0549049
-0.0292973
-0.0939653
0.123263
-0.00143064
-0.187268
-0.015373
0.0117745
-0.221561
0.541747
-0.0257552
0.44885
0.00835451
0.00815678
-0.0523074
0.0523074
-0.726833
0.319716
-0.127154
-0.209693
-0.0225527
-0.0188041
0.0213865
0.205038
0.0327255
-0.000547323
0.00081646
0.0835025
0.0300461
0.055137
0.106239
-0.0212463
0.0146669
0.00101999
0.00303989
0.00533172
0.0096911
-0.0150228
-0.000196583
0.0105514
0.0279911
-0.0279911
0.0511218
-0.0423016
0.0423016
-0.193498
0.0111967
0.019596
-0.0763753
0.0180415
0.0773967
-0.0773967
0.262071
-0.242274
0.0916118
-0.0677012
-0.174573
-0.016087
0.016087
0.403696
0.254787
-0.522638
-0.0810577
-0.03754
0.541479
0.0445718
-0.0691143
-0.459781
0.0808261
-0.153193
0.170456
-0.0172635
-0.0473505
0.0473505
0.828604
-0.598212
-0.0130022
0.0128056
-0.00584954
-0.286848
-0.00068119
0.00468742
-0.0480739
-0.626453
0.573441
-0.65111
0.0142014
0.157474
0.0153135
0.024532
-0.159042
-0.334557
0.258182
-0.0562112
0.0269138
0.168921
0.136566
0.276569
0.265798
-0.250484
0.00568065
-0.117927
-0.222513
0.0681152
-0.0129782
0.163175
-0.138643
-0.0691663
0.152669
-0.40236
0.124908
-0.106867
0.059226
-0.472845
0.175143
0.175615
-0.244781
0.010004
-0.178416
0.177735
0.00435378
0.148315
-0.0280805
0.0484962
0.461349
0.011904
0.0267091
-0.00783826
0.0392141
-0.239777
-0.202904
0.580837
0.169789
0.0615346
0.0750863
-0.0625974
0.0770666
-0.0796495
-0.0303081
0.166792
-0.152591
0.0174264
-0.00122767
-0.107462
-0.0301014
0.0320933
0.251521
-0.0292594
-0.0142752
-0.312337
-0.0122059
0.217369
0.142881
0.176835
0.0563082
0.0975074
0.0370405
0.528772
-0.0140028
0.102417
0.0432863
0.0656205
-0.108907
-0.267851
-0.199189
0.0246159
-0.221324
0.287722
)
;

boundaryField
{
    FrontBack
    {
        type            empty;
    }
    Top
    {
        type            calculated;
        value           uniform 0;
    }
    In
    {
        type            calculated;
        value           uniform -1;
    }
    Bottom
    {
        type            calculated;
        value           uniform 0;
    }
    Out
    {
        type            calculated;
        value           nonuniform List<scalar> 10(1.03387 1.04271 1.03306 1.0361 1.04636 1.03809 1.03341 1.04189 0.853256 0.841266);
    }
    circle
    {
        type            calculated;
        value           uniform 0;
    }
}


// ************************************************************************* //
