/*--------------------------------*- C++ -*----------------------------------*\
| =========                 |                                                 |
| \\      /  F ield         | OpenFOAM: The Open Source CFD Toolbox           |
|  \\    /   O peration     | Version:  2412                                  |
|   \\  /    A nd           | Website:  www.openfoam.com                      |
|    \\/     M anipulation  |                                                 |
\*---------------------------------------------------------------------------*/
FoamFile
{
    version     2.0;
    format      ascii;
    arch        "LSB;label=32;scalar=64";
    class       volScalarField;
    location    "818";
    object      p;
}
// * * * * * * * * * * * * * * * * * * * * * * * * * * * * * * * * * * * * * //

dimensions      [0 2 -2 0 0 0 0];

internalField   nonuniform List<scalar> 
808
(
-0.03350242394996539
0.04382696808719776
-0.01104733456006473
0.03746189184354139
-0.2964402876813026
-0.05575199949409123
-0.01568360102638214
-0.02415173932395102
-0.1950216909587443
-0.0830225892472872
-0.01078679538650748
-0.251868558984115
-0.03071873313306824
-0.0141103197590323
-0.1218580137212871
-0.0142577074689571
-0.1381515252258499
-0.01377396980053088
-0.01265049051969045
-0.05490502644102614
-0.007907815971509661
0.1167644857840331
-0.06328476684886866
-0.07079158913213114
0.1745848219551534
-0.1004966243625858
-0.1509190698630689
-0.02046729444677579
-0.01758436498393342
-0.02555073945153708
-0.02038837706060158
-0.05766886221933357
-0.02271296780995976
-0.01692266192416568
-0.09872778080694834
0.3447662920108697
-0.03995001623886935
-0.01636234570851545
-0.02250613875468942
-0.02647137227535775
-0.08948529197873704
-0.1253968921379657
-0.05274067118191698
-0.02148285885706021
-0.05436740286241389
-0.04235535750339681
-0.01188474166491786
-0.1827400581421894
-0.02658438846718605
-0.202272563060886
-0.01727103986809143
-0.06633418243326386
-0.06166990499567294
-0.01454393180267859
-0.1953935404798717
-0.02782345880103226
-0.01064231316461527
-0.01447361374265039
-0.09926214577055992
-0.03913793483838717
-0.1114353449175068
-0.1246040643743391
-0.01450788603438842
-0.1281929213711649
-0.01764724074477758
-0.05251840298027664
-0.1630892125906055
-0.03537774141927967
-0.01534841189523835
-0.437351281155606
-0.02614258864432839
-0.2983609014823259
-0.02134168083253069
-0.02121264126802991
-0.06353532193091842
-0.0181532003361877
-0.04187682773066216
-0.3653896176504341
-0.03657760277383341
0.03908571789779876
-0.09209852123485791
-0.01677024256078015
0.05726828938928771
0.04571661342192953
-0.01749600876890225
-0.05154006890621396
-0.5379349363114057
-0.2285182910707801
-0.0513982886514661
-0.1134517667113188
-0.05577311964877711
-0.1313866001925745
0.03840156433385188
-0.02642774527926484
-0.06277545541612965
-0.1204237203540638
-0.03821445572205502
-0.05200724301383824
-0.1150891595165623
-0.138892778538372
-0.05316184824470476
-0.04663403252800334
-0.05365531279663768
-0.04414264522977668
-0.05693319867653693
-0.07550730522338096
-0.03963536355112025
-0.01064059654374607
-0.03967153274021765
-0.1225448534872141
-0.04973113236078773
0.08137289136890742
-0.04182872803893079
-0.007609779002886213
-0.02752322478109471
0.1808407336960638
-0.03812601388235592
-0.2657751055917523
-0.02082614334240606
-0.05278528173111093
-0.04256056395956245
-0.04957201764958011
0.01406936070699442
-0.04784928472916225
-0.03660563501616966
-0.219574579311833
-0.0402545902868731
-0.004245579522832659
-0.07485894558423917
-0.06976237772210163
-0.1509300032447662
-0.02132017196061714
-0.07445121329030806
-0.04405953029601635
-0.02311263554453486
-0.01498030932850205
-0.00598238670805812
-0.007615858810376628
-0.05183549300532776
-0.04899516005509272
-0.2142923168141822
-0.05564742123541404
-0.008166217395655982
-0.02184160484194065
-0.1490351152671596
-0.002153769981974665
-0.07543299873833634
-0.02119222126678983
-5.311144959947718e-05
-0.01028218843268622
-0.03284203280117915
0.09329266856676549
-0.03799681082720664
0.2515661158516951
-0.2599409639139185
-0.1338808594357464
-0.03809316303849936
-0.09079160269341148
-0.009050023387791034
-0.114744064127646
-0.1679884171618549
-0.2149487377939577
-0.1786190637405722
0.05693841955679594
-0.06388613940389543
-0.02063678820510554
-0.06620546259246807
-0.1717631995079723
-0.02300421140442491
-0.01876774803980941
-0.05115200655356857
-0.0206767034934731
-0.007506287053155422
-0.1064398945504483
-0.02364674686147508
-0.04428449900168708
-0.07107088505594597
-0.1597652089276698
-0.03302223709492194
-0.3845010833758761
-0.01792206110254045
-0.2276522073412855
-0.04354103306878476
0.03285553686409302
-0.1060218694014442
-0.01657162027698233
-0.04336979897621213
-0.1045756576388785
-0.01790377007097894
-0.09531877524318982
-0.2035124513439987
-0.07120439647746518
-0.02422017276116796
-0.04723723317583897
-0.0420372800761431
-0.2011974381761133
-0.02246677133159394
-0.01936602160596283
-0.01126816610648656
-0.05739006174581127
-0.04985095519601898
-0.02271055743909938
-0.02057875559100653
-0.2337193556396928
0.1268914773676781
-0.2071883732278802
-0.18998827390436
-0.01171132688929967
-0.01127865453872086
-0.06649323296555615
-0.01023839656802017
-0.4925129194131279
-0.1270904792360759
-0.01969191344354754
-0.0008205645003916159
-0.02365803453183833
-0.2774072430625368
-0.2795190555563745
-0.007559580397705683
-0.01780619265597769
-0.001868905906066155
-0.3505738117477927
-0.02862307372070863
-0.02942933211931354
-0.01268951897332652
-0.01942089748574312
0.04858603297332707
-0.1255646219296261
-0.01422233158243376
-0.02094986261601319
-0.0454552377698951
-0.0184201311198717
-0.01643801284609332
-0.02353943863795621
-0.06800795906767898
-0.01104517378256951
-0.01890072222381367
-0.008976485465836299
-0.001357684077804963
-0.02931078606842404
-0.002103098412528822
-0.001963191783039243
-0.005730331507274362
-0.02549237394396664
-0.008110992014878814
0.001630325531764016
-0.004129099169502746
0.001272487985504061
0.002316794880783829
-0.008829955798500497
-0.1293245876948345
-0.002920104836039205
-0.0001458205355901842
-0.04727799198645793
-0.02138792426574495
-0.02368851544110131
-0.01403971498467542
-0.00621034658535256
-0.02116837657213483
-0.04011678726369299
-0.01515599442811712
-0.01263879896205748
-0.01157005882348356
0.006401715704614795
-0.009622971352239888
-0.01318000550243391
-0.01140403411491695
-0.01006086689523575
-0.01016597638988812
-0.01110058604204725
-0.01356254954080632
-0.2915975364108223
0.05890329929652312
-0.01523807865812743
-0.01548129794355491
-0.01238771786157832
-0.01235261265640052
-0.008240885208070739
-0.09928617594427012
0.01238300290823995
-0.01437340017398959
-0.0138148538398931
-0.01059533871577006
-0.05103302243313363
-0.008107465537193027
-0.01386677661352496
-0.009874513636428614
-0.00237042416473388
-0.01135214997669885
-0.01088933675331968
-0.02425264438941364
-0.01558615208057504
-0.01244066354895233
-0.01344657260308194
-0.009833388601233733
-0.01303668478656122
-0.01087696280051513
-0.05986106063545148
-0.01340913543271014
-0.01227734320490254
-0.009186154787189217
-0.0154040112959299
-0.01405076606225127
-0.01568593169800315
-1.367271965633685
-0.1005644137099849
-0.01181442633428845
0.02425407133501719
-0.1617073233700101
-0.09343599413340847
-0.01214968657564839
-0.01423240755315793
-0.2396135172057389
-0.02838527827572987
-0.01791266874744071
-0.01233970759594002
-0.02055177969582829
-0.01074097655115835
-0.03079951659226984
-0.4083441159451949
-0.01201830734825633
-0.0140786412389361
-0.004425996723068476
-0.01078309900210345
-0.009524412141337018
-0.01386661756819553
-0.008037112743107675
-0.02739617713247244
-0.01174635081309681
-0.1709420465934546
0.02023472747502888
-0.007359566737362037
0.003874606565009789
0.01182575885664188
-0.04904121252323058
0.0275772510583213
-0.01291000931770559
-0.1330414532530006
0.2827671922258448
-0.008218092689531564
-0.01352315258813355
-0.007945063657117743
-0.03330603685343438
-0.1258301320457478
-0.01319268205576776
-0.01194941235846456
-0.01768218350011869
-0.01351481673030986
-0.04170696363330483
-0.2201340627960678
-0.009339479947062799
-0.04370359576982581
-0.03835051836823893
-0.1794954537270211
-0.1514347512583119
-0.1552710755827166
-0.2370283529083416
-0.002946730715529726
-0.02068430274399612
-0.01557515033222698
-0.0140127986264319
-0.03376852129493194
-0.02451003786948167
-0.01396525694065611
-0.01492430391360447
-1.069775921491211
-0.002920089809143549
-0.01339850376124835
-0.01799340762702972
-0.01968516032061064
0.005498712134338306
-0.01426461430728146
-0.02545906616147641
-0.1563359406992569
-0.01360130118116204
-0.02090349825025605
-0.01465616731708761
0.001039511376322671
-0.1779922600867094
-0.01259923206999943
-0.1574063695229722
-0.01541658046420141
0.006206168537873102
-0.01393687492734115
-0.02428949291861816
-0.01644161423953135
0.007327031434280863
-0.2660368775756288
-0.02676621060002638
-0.01696218992494136
-0.01681804661482052
-0.01101097050891719
-0.02930870003135465
-0.01371397345644677
-0.02120757420179588
-0.02046574904931414
0.008347195810107354
-0.09770251307080768
-0.02115004012406118
0.009628811977060668
-0.05738203542162262
0.1793766756571876
-0.1065325439485409
-0.3167261576296611
-0.02933579310041664
-0.02594693863480898
0.1510305924561037
0.09466327984385764
-0.003783896263277818
0.05370590548885664
-0.01515838808101324
-0.01325847846870216
0.002723955919651615
0.007913233812708904
-0.06486040560552989
-0.004368072327532921
-0.05592128098920381
-0.02334261243164315
-0.0156774023512458
-0.0365047917699691
-0.03293650811089945
-0.006698270273339996
-0.01452500380516399
-0.0368058943755943
0.03056131770250898
-0.03862315290116974
-0.0138511112536853
-0.1197695871172787
-0.03081958076435157
-0.04005116278310334
-0.6688858059610713
0.01341104721000173
-0.0106840712855679
-0.005635687197868019
0.1871343177072463
-0.1016933732998849
-0.03602317092377211
-0.2420840284040947
-0.01515598101381895
-0.01604252197202171
0.07729794155784428
-0.180679408168559
-0.2303471670613332
-0.1857706842033739
-0.6764724964785295
0.0112787456391457
-0.01791350685868852
-0.01512265713337504
-0.09685666505342931
0.1186395448760972
-0.02198638674944537
-0.2418127262732226
-0.03636126832798275
-0.007011293029468492
0.27897392942641
-0.01078233306029077
-0.09092782188734251
-0.1530785657438606
-0.004603198330097593
-0.04175397884658057
-0.04629001599248215
-0.1952515251587419
-0.00789921508888476
-0.03986675904386595
-0.003775627100704841
-0.5441250685373817
-0.1940235861527984
-0.1789025079848325
-0.02368064497698833
-0.009132880408616838
-0.06221118720627367
-0.0564057701366432
-0.01602047972832365
-0.06972899921908661
0.00457858707821287
-0.01754996845787892
-0.09506159961057653
-0.2772190512308824
-0.009918903565551281
-0.02475528214414286
-0.02126023455447522
-0.07652888609977407
-0.08894769556879337
-0.08991432354504966
-0.01122627383086869
-0.9079160857148485
0.1620705149745635
-0.08303779723565155
-0.2511575982527443
-0.04129209569531929
-0.009109641332596055
-0.2476228962649473
-0.1960132407143757
-0.03088334556577406
-0.1138323763022619
-0.01775302962454089
0.5627554397200187
-0.02526510796454499
-0.2130088753006416
-0.02500595012589822
-0.003734417262664991
-0.01085472910093114
-1.24593570583049
-0.1815910737240698
-0.2270518737988114
0.005252266931170227
-0.03950622719585918
-0.234253895403587
-0.06724462264988736
-0.05227894164065942
-0.1461345983951469
-0.1821410313904731
-0.07013474123163402
-1.214917428363421
-0.1606259546785015
-0.5418506876717349
0.07992594910241199
-0.006271071875265142
-0.02095701136763201
-0.04483651367917085
-0.03813509167011708
-0.02760505432003494
-0.1298917516249089
0.08144324769826454
-0.004391199432024487
-0.009866606854891279
-0.5619837387845958
-0.8490012751810175
-0.1754087016793149
-0.007530047357395791
-0.1224812331414954
0.0005777525769233666
-0.0005820260359641555
-0.002908289776719145
-0.06184507865296294
-0.2333235511567088
-0.01333272620345575
-0.1100346750128275
-0.1564041681253632
-0.0130926159910397
-0.03438489647185133
0.0288158153986394
-0.05895231644601812
-0.0722320471806266
-0.4924444712256059
-0.229278017960052
-0.07974330396763821
-0.07569807445427389
-0.01926813588791472
-0.110407281703783
-0.1664356089405671
-0.08243050083310642
0.02730545982039788
-0.08741355091447708
-0.05054357308633418
-0.01494617744189484
-0.1160881741359303
-0.2816144578057986
-0.0596527117951786
-0.01798362524560486
0.001767654195854652
-0.0102371948604841
-0.01050740721027033
-0.2375017545962612
-0.01395646307804982
-0.2167532642572004
-0.01081468201072582
-0.07171786186106197
-0.004039826587079983
-0.02326139434166088
-0.3927657017099414
-0.9285590326889173
-0.01122856693617975
-1.040708312556864
-0.6011471729508762
-0.01062088427311652
-0.6596523861472786
-0.1870445191783328
-0.004872560821784286
-0.1232693614593855
-0.01713103950084452
-0.1255539983613313
-0.06485870014079165
-0.07779600048702877
-0.005613210640085428
-0.003639995538551959
-1.34476560129006
-0.01137787059893069
-0.1883483496994209
0.001049563091131075
-1.007126076444981
-1.248329101454144
-0.07833858276393262
0.0165212668371589
0.1645863978061711
-0.004924043812800307
-0.0229459180958951
-0.004370505700430318
-0.2384869039818352
0.3654848744961399
-0.04238622910334107
-0.2144801630010978
-0.01529586684107924
-0.652540844687389
-0.07217708748829425
0.1889762684476019
-0.3040038178313326
-0.05099804798466355
-0.07052810421081993
-0.01579870622369486
-0.02137578241009711
-0.5941335660522877
-0.1540347342682798
-0.0957398981637709
-0.1180483200408056
-0.5506613438068895
-0.04556616779625705
-0.9024824118329725
-0.0007578685940451751
-0.2443566923162421
-1.053671206937976
0.1667109894593329
0.2900916881917778
-0.1702710565893455
-0.1892276487414591
-0.2135395803729192
-0.06614676079862356
0.02570659776422453
0.04660033475449574
0.00508214428698158
-0.1523647393523978
0.0260709383172411
-1.366527451322311
-0.08741359417695033
-0.4795374076697205
-0.3346286018005579
-0.2199918278999377
-0.1806189571812939
-0.01698325386650081
-0.01535408338642432
-0.09261865706664987
0.1731890814680724
0.3845665201748259
-0.2102508789770411
-0.1564895439395958
-0.2246767461227339
-0.06380147889552763
-0.1635373659261606
-0.1729720762780617
-0.1279155654512785
-0.109635976337421
0.4651001768106505
-0.2833765482428091
0.4320352600251717
-0.5891665546743248
0.0729866937442151
-0.1888096633443499
-0.06808863431636508
-0.07768928396256138
-0.8939479342187218
-0.2183114693728249
-0.1928497275925434
-0.3552997778737061
-0.4667222235603191
0.569699548714199
-0.2126806899286182
0.002649332425540595
-0.06753470298166354
0.344819277530824
-0.03491325219578178
-0.1189561704610499
-0.1819455658454749
-0.0647328393024669
-0.01632309642368577
-0.1985267807237612
0.1953103834908018
-0.01257727029842298
-0.09895999472292676
-0.1762711087769081
-0.3178923913135741
-0.3079290016491243
-0.08345789287058045
-0.009635211118824651
-0.07865702781378708
-0.6508891997521972
-0.6737507222185047
-0.3247850364844347
-0.05939539435417532
-0.04950058849708609
-0.02435257300149093
-0.07033405687179839
-0.05494550245974687
-0.3687082204746404
-0.9629329134355263
-0.008611160393470308
-0.08554973530486619
-1.145817543105928
-1.043160793286039
-0.1081705946834056
-0.04169568137734215
-0.0678246193013438
0.3891005734579293
-0.3394831711728123
-0.05148260258622063
-0.605514940014371
-0.137832505458949
-0.2483533328843775
-0.2140589708704991
0.473407165405157
-0.6370991593423061
0.07581359368625845
-0.02837182628447542
-0.5700904213752471
-0.05453444502407369
-0.3654564716590985
0.1092572648207476
-0.1939198226375094
-0.06166305930530828
-0.124955050064131
-0.3581553872090075
-0.08506563271999112
0.514900691678969
0.08699457498833835
0.4698479385692176
-0.1249635532347024
-0.2070461201598859
-0.5090779725555377
-0.1342508998929257
0.02421609022681867
-0.05575487858037292
0.1000841916460233
-0.3045179121077061
0.2363905873734372
0.005346980616912067
-0.00262600466115955
-0.5079060838620688
-0.1815738501052649
-0.100116613802165
0.5810791159932631
0.1396133728596206
0.3443438728578853
0.2251115847349754
-0.5666967778558386
-0.2094262466605867
-0.2197662681483458
-0.2290388076742254
-0.06244676492619033
-0.6875705428685517
-0.1904013637667735
0.3045875435335023
-0.2037361512827977
-0.01118768566033216
-0.1625413797134184
-0.01192519564385384
-0.1708019199707001
-0.4473258206576469
-0.07662771417870019
-0.2063425959950321
-0.07745977721566009
-0.1103456770361873
-0.1316407893409224
-0.0726413423541033
-0.440178845504388
-0.4105875977400436
-0.0240915497950408
-0.07768989116557555
0.3285098139090935
-0.2525622247215156
-0.1715276178457286
0.5244882579418509
-0.193513626730901
0.02067601680195357
-0.4557964008739198
0.04887918341759643
-0.05950921752501809
-0.1553936652515792
-0.5925609509978953
0.1593064397719518
-0.5750892561478084
-0.5412716717884087
-0.1024169091821346
-0.5129625827823578
-0.03601829190384616
-0.156317439779069
-0.4144944827005942
-0.01608131253607001
0.2878224655411312
0.4897161381479052
-0.1676589389123266
-0.005629127733945592
-0.08104005818354805
0.5250260292852865
-0.03206550335326591
-0.4463497160085126
-0.03159989923755052
0.4612507758428639
-0.01746698189513288
-0.5510203977160567
-0.2398084930812349
0.1777311580247452
-0.3158869592730223
-0.1825906009816152
0.04864155781288827
0.03119740426955808
0.05646362038837272
-0.3050166841426348
-0.1590814386828017
0.4127703952726462
)
;

boundaryField
{
    FrontBack
    {
        type            empty;
    }
    Top
    {
        type            zeroGradient;
    }
    In
    {
        type            zeroGradient;
    }
    Bottom
    {
        type            zeroGradient;
    }
    Out
    {
        type            fixedValue;
        value           uniform 0;
    }
    circle
    {
        type            zeroGradient;
    }
}


// ************************************************************************* //
