/*--------------------------------*- C++ -*----------------------------------*\
| =========                 |                                                 |
| \\      /  F ield         | OpenFOAM: The Open Source CFD Toolbox           |
|  \\    /   O peration     | Version:  2412                                  |
|   \\  /    A nd           | Website:  www.openfoam.com                      |
|    \\/     M anipulation  |                                                 |
\*---------------------------------------------------------------------------*/
FoamFile
{
    version     2.0;
    format      ascii;
    arch        "LSB;label=32;scalar=64";
    class       volScalarField;
    location    "227";
    object      p;
}
// * * * * * * * * * * * * * * * * * * * * * * * * * * * * * * * * * * * * * //

dimensions      [0 2 -2 0 0 0 0];

internalField   nonuniform List<scalar> 
808
(
-0.03349539485011299
0.0438248631553968
-0.01104690197862608
0.03746902959693018
-0.2964198424499292
-0.05575352343207315
-0.01568528584433107
-0.02415164890192986
-0.1950068121383466
-0.08301448440553953
-0.01078714946027554
-0.2518515130708031
-0.03071879071115029
-0.01411215233674632
-0.1218686746327763
-0.01425785334915004
-0.1381609618594831
-0.01377415277365295
-0.0126520561526553
-0.05489923242958407
-0.007911037315502221
0.1167606630452899
-0.06329046784033267
-0.07078386566994682
0.1745793790554387
-0.1004991203701439
-0.1509063383090649
-0.02046763058049492
-0.01758494204308213
-0.02555030818506448
-0.02038875441306659
-0.05766251589671995
-0.02271290474501454
-0.01692298700211632
-0.09871931139782733
0.3447696984377224
-0.03995259009796812
-0.01636219433304211
-0.02250439441155694
-0.0264713022357639
-0.08947723825211673
-0.1253856348787498
-0.05274487831539222
-0.02148373657817585
-0.05436965970000174
-0.04236122395980466
-0.01188412043464406
-0.1827253680413195
-0.02658191316791814
-0.2022569478702786
-0.01727243081283875
-0.06632641286615103
-0.06167474607516722
-0.01454559913778493
-0.1954060810576588
-0.02782070689066138
-0.01064332632029947
-0.01447703077969081
-0.09925263018116103
-0.03913401950492627
-0.1114427427717496
-0.1245922797650171
-0.01450971918057568
-0.1281815430112931
-0.01764762269595979
-0.05252255912547828
-0.1630700664021204
-0.03537732304389567
-0.01534949712910564
-0.4373266477184378
-0.02614082759042516
-0.2983372377165645
-0.02134018537323274
-0.02121325205014279
-0.06352239801914289
-0.01815475871303145
-0.04187251498325155
-0.3654104371802152
-0.03657927482310366
0.03907688573484441
-0.09210397555320904
-0.01676924674887603
0.05726908434014515
0.04572388653196351
-0.01749776833043748
-0.05153522575726133
-0.5379053925967743
-0.2285329731614857
-0.05139268929642971
-0.1134577319480674
-0.05576658116053847
-0.1313750271110413
0.03839582059393237
-0.02643411017457099
-0.06278045737109515
-0.1204114103903717
-0.03821398355584106
-0.05200850532247635
-0.1150787449146917
-0.138879463446575
-0.05316341788693266
-0.04662942841435457
-0.0536497206750574
-0.04413832376822959
-0.05693029554089968
-0.07551250392098191
-0.03963474749730553
-0.0106402821815678
-0.03966809779321927
-0.1225324527675195
-0.04972731145605427
0.08136773120014808
-0.0418255667260273
-0.00761039257637395
-0.02752281797449043
0.1808435321362983
-0.03812139534941434
-0.2657543369581574
-0.02082664751675117
-0.05277929074862643
-0.04257820658942191
-0.04957557844211596
0.0140732594673452
-0.04784272612385268
-0.03661185691416846
-0.2195892691241112
-0.04024668561739138
-0.004245168643694658
-0.07485038233437318
-0.06976741235969877
-0.1509123171529603
-0.0213201214325713
-0.0744445414789761
-0.0440669956768053
-0.02311293687461245
-0.01497605057326269
-0.005982343841268887
-0.007615547307530433
-0.05183224431624692
-0.04898974663817503
-0.2143188517379594
-0.05564017682058173
-0.008165404810100455
-0.02183951239597462
-0.149045440682565
-0.002154993417909565
-0.07542602722361327
-0.0211843949829217
-5.194345380760533e-05
-0.01028423565195173
-0.0328396001315068
0.0932864987857344
-0.03799177052641883
0.2515631984622588
-0.2599523820444299
-0.1338895226470049
-0.0380945011077248
-0.09079230847658271
-0.009050700491197562
-0.1147514542939942
-0.1679593059366639
-0.2149662081220455
-0.1785952438297807
0.05694277664606482
-0.06389069597310822
-0.02063725258370225
-0.066200747307015
-0.1717394248224514
-0.02300221194584895
-0.01876715662079535
-0.05114579104675997
-0.0206832897189987
-0.007509567719336786
-0.1064267558053386
-0.02364789210441741
-0.04427746689466353
-0.0710761134858764
-0.1597516100406307
-0.03302079163789468
-0.3844736020629096
-0.01792221787181556
-0.2276653790393221
-0.04353573333669966
0.03286278854049324
-0.1060265192567676
-0.01657722389581871
-0.04337352994367195
-0.1045680772056987
-0.01790372059482398
-0.09531096887089389
-0.2035163998290951
-0.0711984556108583
-0.02422066140783156
-0.04722942002669991
-0.04203237752708645
-0.2012002461980139
-0.02246752685082212
-0.01936652574685609
-0.01126785846250975
-0.05739663734890903
-0.04984450720863208
-0.02271049098400912
-0.02057853330880504
-0.2336920597481296
0.1268887460549364
-0.2072052971048368
-0.1899457998839865
-0.0117113195976645
-0.01127781914034725
-0.06649034100958093
-0.01024078850582014
-0.4924707412396026
-0.1270808233403619
-0.01969281948681761
-0.0008165297779249771
-0.02365674966954144
-0.2773832459732167
-0.2795363570830982
-0.007559599962533005
-0.01780457480850543
-0.001866016818963884
-0.3505927159299854
-0.028623360015322
-0.02942943086096481
-0.01268963538950006
-0.01942034219414206
0.04858030037521487
-0.1255713191311579
-0.01422385132527823
-0.02095019277545709
-0.04546125958749817
-0.01842032117867241
-0.01643818508272948
-0.02353977264999622
-0.06801098907707952
-0.0110435729969573
-0.01890051841546855
-0.008976875911044289
-0.001357360266306517
-0.02931048864540663
-0.002103938940257051
-0.001962643728046018
-0.005729353833636043
-0.02549224695521586
-0.00811085195184319
0.001630000484044419
-0.004129474227103553
0.001273239871315491
0.002316847877797607
-0.008831289450255048
-0.1293111207601567
-0.002919873281146294
-0.0001461078128897913
-0.04727671315233809
-0.02138815492400344
-0.02368582499475391
-0.01403939916175759
-0.006210689741616387
-0.02116852998570324
-0.04012373634365273
-0.01515713759455298
-0.01263918229653487
-0.01156825445462407
0.006407642101681814
-0.009622401480915907
-0.01317981436022408
-0.01140473403111904
-0.01006010918709214
-0.01016690088853076
-0.0111025355359077
-0.01356166443332935
-0.2915654818962148
0.05889772961466085
-0.01523951646274814
-0.0154761718533904
-0.01238702385305987
-0.01235092663755602
-0.008240647606945197
-0.09928099265651315
0.01239469419650169
-0.01437319487630406
-0.01381251852793813
-0.01059449152871857
-0.05102629370574564
-0.008108482445847437
-0.01386576126848632
-0.009877654359716014
-0.002368829938033278
-0.01135638614560498
-0.01089334658314991
-0.02425134266137204
-0.01558403990134006
-0.01244072548074228
-0.01344727411324618
-0.009831779884037672
-0.01303411838713696
-0.01087715749630307
-0.05986730493867684
-0.01341115766760148
-0.01227729859071595
-0.009187037160591332
-0.01540468084660012
-0.01404966906067918
-0.01568559578776378
-1.367224345623176
-0.1005703441039045
-0.01181455928307005
0.02426404745568271
-0.1616929818303647
-0.09343140909232672
-0.01215209030415049
-0.0142324574319284
-0.2395510983546862
-0.02837778371963363
-0.017904595472331
-0.01234241331004399
-0.02055272404541543
-0.01073779141957068
-0.03079979968949755
-0.4083212962462954
-0.01201860838869507
-0.01407864334338632
-0.004425151818282486
-0.01078536151681978
-0.00952779750587272
-0.01386564958838942
-0.008028797303297293
-0.02739799190175008
-0.011747672973663
-0.1709792616129353
0.02024086295865364
-0.007358491093695709
0.003877437081368327
0.01182559424439406
-0.04904484540510767
0.02757143971410081
-0.01291151365440821
-0.1330298363365864
0.282770320784746
-0.008218980705147103
-0.01352464903039657
-0.007944086501894961
-0.03330429781404014
-0.1258389673457491
-0.0131903537287894
-0.0119484767410551
-0.01768203207165003
-0.01351456359278987
-0.04170826327695699
-0.2201505649899363
-0.009334602299218347
-0.04370981244540713
-0.03834726256634501
-0.1795265651791498
-0.1514111647653483
-0.1552553348875552
-0.236939562311373
-0.002940686096299927
-0.02068302909697492
-0.0155751675309073
-0.01401387574469896
-0.0337704402428587
-0.02451041898942604
-0.01396432837436296
-0.01492382144041551
-1.069732761839919
-0.002921220198192991
-0.01339706226517636
-0.01799274514286904
-0.01970087363990776
0.00549272905647926
-0.01426705178158191
-0.02545174326527146
-0.1562892398356303
-0.01360125314469341
-0.02090221797315976
-0.01465676022627743
0.001030869635524719
-0.1779938954793358
-0.01259725322350145
-0.1574243495404794
-0.01541566493562209
0.006186812110629526
-0.01393628829637295
-0.02429162272797449
-0.01644177463055265
0.007328794578293585
-0.2660099981081152
-0.0267683669635213
-0.01696277367143906
-0.0168198370036497
-0.01101365117734831
-0.0293056814376077
-0.01371283062686515
-0.02120845028869943
-0.02046408975029134
0.008354580639521762
-0.09769208638708327
-0.02114792243620243
0.009629496858219528
-0.05739976489672905
0.179431378380026
-0.1065422618118189
-0.3167056012142943
-0.0293363854550743
-0.0259478101976052
0.1510387214455566
0.09463714313539824
-0.003785273933723664
0.05370934806461217
-0.01515685718536451
-0.01325622194239487
0.00272493538748919
0.007902674155801608
-0.06485358523439196
-0.004368086212621734
-0.05591673373744508
-0.02334356027779022
-0.01567742823381972
-0.0365048113282876
-0.03293650221328516
-0.006698330745621862
-0.01452495504659208
-0.03679815787973607
0.03055406061459572
-0.03862278608723522
-0.01385234926287944
-0.1197787186792246
-0.03081788013248802
-0.04005438677543247
-0.6688546794476715
0.01341344746335306
-0.0106819011112208
-0.005637321828132526
0.1871501519483867
-0.1017243766345679
-0.03602489371500493
-0.2420674073499063
-0.01515429319173328
-0.01604139607543208
0.07734630055520451
-0.1806618505541441
-0.2303732384078614
-0.185743894763751
-0.6764393569216154
0.01126960497312322
-0.01791226324545678
-0.01512282308948031
-0.09687665089724659
0.1186431327332876
-0.02198568022763767
-0.2417593130485475
-0.03636394768933351
-0.007012443861778879
0.2789868678427876
-0.01078167593247497
-0.09091837491242148
-0.1530906911422799
-0.004599273931685193
-0.04175655563058497
-0.04630209453960225
-0.1952349112665955
-0.007896820489249952
-0.03985941674774329
-0.003776631773386618
-0.5440988397848585
-0.1940020595820656
-0.178913101695943
-0.02368193799002674
-0.009136974660663969
-0.06221695594234116
-0.05640030979034067
-0.01601738249812922
-0.06973449879131315
0.004584741918245879
-0.01754838072830786
-0.09505561586144629
-0.2772445500953658
-0.009919794853586149
-0.02475332443018657
-0.02125857685578524
-0.07653465450243835
-0.08894058349145098
-0.08991987552108191
-0.01122746227493972
-0.9078655353920152
0.1620765884463879
-0.08303716664782042
-0.2511376169600626
-0.04128847996779848
-0.009108072167134253
-0.2476373822631227
-0.1960528976051919
-0.03087565636832635
-0.1138182146926071
-0.01775534425733033
0.5627595650431558
-0.02526791587696351
-0.2129809434294931
-0.02500294509392983
-0.003734161407829849
-0.01085363387942102
-1.245893343090011
-0.1815762316157995
-0.2270300744136697
0.005251754222884608
-0.03951208904715815
-0.2342267762304627
-0.06724922549825636
-0.05228198153207078
-0.1461486994702034
-0.1821042658348387
-0.07014067409052742
-1.214867031851667
-0.1606480190243479
-0.5419021437194489
0.07993006965595956
-0.006268064230323455
-0.02095458577039056
-0.04484233450160763
-0.03812666846067103
-0.02760283515123962
-0.1298776387940844
0.08144930824910082
-0.004389189949616006
-0.009867412304756488
-0.5619417438373252
-0.8489574551670492
-0.1753762780715084
-0.00753004940272915
-0.1224640530231445
0.0005765406159510802
-0.0005799411996739605
-0.00290928852977203
-0.06184726519607579
-0.2333049300040268
-0.01333222375856835
-0.1100159316541467
-0.1564139213882552
-0.01309234071747423
-0.03438096552483717
0.02883491867305566
-0.0589562063026714
-0.07223850450661962
-0.49241475714076
-0.2291846729579343
-0.07973747574927101
-0.0757069677697937
-0.01926683580375931
-0.1103965836937553
-0.1664515799119056
-0.08243732414282465
0.02730248659601828
-0.08742141773847474
-0.05055011249822336
-0.01494607396474965
-0.1160891557856233
-0.2816371201568242
-0.05966047581735419
-0.01798236236530082
0.001763214713871609
-0.01023717203712067
-0.0105061251802055
-0.2375353666436839
-0.01395611421883997
-0.2167338824793842
-0.01081446123361953
-0.07174712818909043
-0.004041538885193027
-0.02326159819215342
-0.3928023615876838
-0.9286171081333509
-0.0112284655935962
-1.040669427452722
-0.6011119593127378
-0.01062007847228933
-0.6596846194031991
-0.1870743159276017
-0.004872942419764688
-0.1232515073875543
-0.01712998782771042
-0.1255657255549537
-0.06485033638278231
-0.07781025810424794
-0.005613117104333788
-0.003639017204056133
-1.344810524076638
-0.01137905550031639
-0.1883245281109752
0.001050664550416155
-1.00708842540891
-1.248385217023228
-0.07832753070648524
0.01650995531874318
0.1645878062640087
-0.004923370860809644
-0.02294587626984216
-0.00437045147265106
-0.2384584028571946
0.3654833076074715
-0.04238956897795435
-0.2144924288333063
-0.01529609758187906
-0.6525080529217469
-0.07216737285779469
0.1889672188274957
-0.3040423881824416
-0.05100049482227487
-0.07053230152395706
-0.01579871520240445
-0.02137520664907755
-0.5941822948876022
-0.1540540063418922
-0.09575474799620631
-0.1180305260205466
-0.5506342445360758
-0.04556901257314853
-0.9024475756360378
-0.0007553946246553688
-0.2443748229596056
-1.053709598324571
0.1666916871664728
0.2900808561551936
-0.1702657914824116
-0.1892102754025093
-0.2135700840816491
-0.06614015119361803
0.02570738208982074
0.04658023933255429
0.00507977015267274
-0.1523510923369192
0.02607375149342322
-1.366577703824035
-0.08741940515822091
-0.4795607040968496
-0.334649313797831
-0.2200230716374253
-0.1806338309259997
-0.01698328380956494
-0.01535399775545598
-0.09260159352943673
0.1732038266714589
0.3845619816789071
-0.2101923524618609
-0.1565046337490566
-0.2246193202316242
-0.0638047335674049
-0.1635523259115954
-0.1729917369675507
-0.1279227009857361
-0.1096258725590874
0.4650884875464731
-0.2834083914119381
0.4320473972399287
-0.5891344839478151
0.0729961703816024
-0.1887764459455448
-0.06809361676157326
-0.07770130286410902
-0.8939984163100027
-0.2182853861346117
-0.1928624437407792
-0.3553232404040062
-0.466749028659374
0.569697298360453
-0.2127153200407538
0.002657889524650626
-0.0675231454838385
0.344829227334583
-0.0349042566040619
-0.1189594221039049
-0.1819575521502672
-0.06473222927444182
-0.01632287925556835
-0.1985464543485675
0.1953291458545632
-0.01257746520115519
-0.098967200268336
-0.17629306427392
-0.3179177969330874
-0.3079097314301887
-0.08348016190811886
-0.009634245931423559
-0.07868015809343318
-0.6508583668684966
-0.6737816087077284
-0.3247549967697126
-0.05939953419232147
-0.04949221363477663
-0.02435033979853673
-0.07034153269507676
-0.05493575449814265
-0.3687340453065914
-0.962969144028414
-0.008610444075772009
-0.08555676664427694
-1.145859785551699
-1.04320659388487
-0.1081895171186072
-0.0417054818468788
-0.06781725773149024
0.3890909394599052
-0.339462773874653
-0.05147732986905318
-0.6055442776872473
-0.1378502116754678
-0.2483356673355689
-0.2140761226162189
0.4734034658501771
-0.6371327107680839
0.07582928336607322
-0.02836906019393657
-0.5701276137703613
-0.05454347561414229
-0.3654799170797267
0.1092702300258056
-0.1939312434817443
-0.0616676959141242
-0.1249385248699012
-0.3581317824096815
-0.08504625863181924
0.514908067073748
0.0870012650554136
0.4698412567865186
-0.1249529746136187
-0.2070675300958737
-0.5090438049974679
-0.1342675919539476
0.02420799689695055
-0.05576085682754309
0.1000721301731741
-0.3044919642989694
0.23639193648926
0.00533395569998492
-0.002625001517622472
-0.5078808080793143
-0.1815587820121208
-0.1001290488700813
0.5810800100059431
0.1396184565291588
0.3443301543103219
0.2251102261442265
-0.5667242473223657
-0.2093747365210254
-0.2197796367259535
-0.2289994426083521
-0.06245244031627202
-0.6875396894454342
-0.1903811535464935
0.3045802368389365
-0.203685391500374
-0.01118858780526527
-0.1625099551386584
-0.0119322322401505
-0.1708253175311137
-0.447360195201333
-0.07662432336935014
-0.2063715400836449
-0.07746548729670345
-0.1103525766633368
-0.1316196243261008
-0.07263664520312174
-0.4401441831667244
-0.4105638001914996
-0.02408017326956616
-0.07770010192466634
0.3285243412964659
-0.2525790822023951
-0.1715013365075758
0.5244814461400933
-0.1934871846904111
0.02068942854814011
-0.4558196896636993
0.04889927463832435
-0.05950036466361296
-0.1553630671097349
-0.5925943276035777
0.1592917649969914
-0.5750618395919657
-0.5412993257853216
-0.1023998736953356
-0.5129888170488144
-0.03601485600740627
-0.1563352193974601
-0.4145182499256162
-0.01608049731449721
0.2878307468613373
0.4897184471221679
-0.1676787859476648
-0.005619561702854063
-0.0810716777927864
0.5250253151216127
-0.03206203545443927
-0.4463744893916629
-0.03159747657733036
0.4612574489027277
-0.01747482147403656
-0.5510482254011105
-0.2398145380865605
0.177741015915323
-0.315906048159197
-0.1826048969702409
0.04862625439854028
0.03119033283748202
0.05647208560847949
-0.3050358582017165
-0.1590917692840237
0.4127711147139689
)
;

boundaryField
{
    FrontBack
    {
        type            empty;
    }
    Top
    {
        type            zeroGradient;
    }
    In
    {
        type            zeroGradient;
    }
    Bottom
    {
        type            zeroGradient;
    }
    Out
    {
        type            fixedValue;
        value           uniform 0;
    }
    circle
    {
        type            zeroGradient;
    }
}


// ************************************************************************* //
