/*--------------------------------*- C++ -*----------------------------------*\
| =========                 |                                                 |
| \\      /  F ield         | OpenFOAM: The Open Source CFD Toolbox           |
|  \\    /   O peration     | Version:  2412                                  |
|   \\  /    A nd           | Website:  www.openfoam.com                      |
|    \\/     M anipulation  |                                                 |
\*---------------------------------------------------------------------------*/
FoamFile
{
    version     2.0;
    format      ascii;
    arch        "LSB;label=32;scalar=64";
    class       surfaceScalarField;
    location    "1804";
    object      phi;
}
// * * * * * * * * * * * * * * * * * * * * * * * * * * * * * * * * * * * * * //

dimensions      [0 3 -1 0 0 0 0];

oriented        oriented;

internalField   nonuniform List<scalar> 
1171
(
-0.9279051314671911
0.9279051314219612
0.7874081411989778
-1.099222165034704
0.3118140240719044
-0.1898343692709118
-0.7662597520682644
0.9560941212644571
0.07209486546240933
-0.117456283471091
-0.2123954589888923
0.3298517416950615
-0.7874081292680871
0.06939244375125793
0.7180156855327623
0.8112686820178608
-0.1779618305278345
-0.6333068515991408
0.8740156312887866
-1.044143869570199
0.1701282383266324
-0.2853720875405172
-0.09803909227450129
0.3834111802174188
-0.03650918365469474
0.5489364960626379
-0.5124273125013779
-0.507289192690544
0.8270173857432314
-0.3197281929526068
-0.4028283658431722
1.045734017235371
-0.1717183859474937
0.3922024665495496
0.05042800070351913
-0.4426304687023552
1.045944137042566
-0.000210119276130009
0.4442966751349496
-0.05209421225264033
1.056452381573552
-0.01050824693611288
0.5804850941052521
-0.7703194584362142
-0.7240700425077301
0.5565842394349078
0.167485802976248
0.2139779412325358
-0.7212671417314477
0.5499018278876159
-0.9225519830934026
0.3726501543084976
-1.094220079987263
0.6866231805925034
0.40759689949617
-0.5955899132052905
0.559080736137377
0.01719620501522328
-0.2557512356015183
0.2385550296283586
-0.02247584991654714
-0.5238877429063408
0.5463635923032065
0.400326493578661
-0.4983655802468072
-0.9189634928929404
0.9416902053863153
-0.02272671245837379
1.067760357803489
-0.01130797760327504
0.9348810515569635
-1.116690059433249
0.1818090077791203
1.067220176027285
0.0005401785662640357
-0.6643851428461638
-0.05968489761940514
1.262195502787692
-0.8643395288854808
-0.3978559739112967
0.1482566794571855
-0.1099953947607129
-0.3255723995546373
0.4355677946741169
-0.2854951156982538
0.1919562680429917
0.09353884813733726
-0.583679425390447
-0.5155427454165185
1.014089614168534
-0.0792085632585139
0.009873505417228602
0.8255018892170534
-0.8353753945683071
0.5717187917881011
0.6904767133462818
0.4389411047693419
-0.0309713194454097
0.4312978125304043
-0.808074944373783
-0.1025379395712122
0.9106128838462879
0.5020995594771294
0.254041024515494
-0.7561405839918339
0.006589160992532276
0.5295974051286462
-0.5361865668917393
-0.4900107799105071
-0.6042093013342754
-0.4227566556141297
-0.6939334035980349
-0.02726600224449465
0.270723215837919
-0.2434572126041792
-0.9247814413283088
-0.005110573619007906
0.929892015020376
0.3085291827275088
0.07488200311825124
0.7615641401766094
0.04970453693673418
-0.5329721443814137
-0.06261776746702268
0.04599658907083917
-0.8540715342185908
0.07625853299427311
0.8630840626788634
-0.939342595641208
-0.3468452407222685
-0.04082957715988369
0.3876748181452308
-0.6820743836322917
-0.2427070534318396
-0.6344145372918305
0.7106730689756663
0.6144146098990112
0.2126027689231093
-0.5433986259127185
0.9456655174889971
-0.778933335541628
-0.1667321818850712
0.01054433615422092
-0.007113734195636697
-0.003430602148893465
-0.4034892591826444
-0.09487632156919919
-0.2411664007739784
0.8555810059905975
0.04839241641886956
0.3341564808882153
-0.3825488967888549
-0.4615236195987151
0.9636231742063373
0.6804589463009005
-0.7829968873481828
0.3194094871138957
-0.01561098381376904
-0.3037985028605112
0.9307235768024507
-0.9307235767814942
-0.7812518234593696
0.1111278651005867
-0.3235233204880012
-0.7499278777474115
0.7598013854369308
-0.09073846098079864
-0.1432998974068256
0.2340383591863836
0.8648891594438215
-0.03938726652827156
1.054494646534377
-0.800453628939696
0.1867437679429287
-0.3163500455978947
0.1296062773844207
0.8584408438677094
-0.09687670525331635
-0.6113706096862831
-0.03911916042688501
0.6504897701566555
0.1234233494383009
-0.2304241780622768
0.1070008274800308
0.8055653000612176
-0.9835271347080156
-0.4342826536900435
0.329121583085449
0.1051610699452988
0.5333559534573646
-0.5558318058914551
1.021921131066941
-0.4562106864528957
-0.5657104445856888
0.5991644750425031
-0.7193108892292235
0.06654938153844357
0.652761508032357
0.1023002537518588
0.5695572232534051
0.05526505565483973
-0.624822279071151
0.1947713387753061
-0.08364347684479513
-0.4921376521774975
0.1452924107442128
0.05024692124057745
-0.8864256920284046
0.8361787707020748
-0.4734597371574695
-0.7131958965389512
0.04881075466329962
0.4371312659065508
-0.005833450695551141
0.3000448958475784
-0.8552850095753268
0.5552401135720128
0.4157585527033011
0.5842414471987787
0.560535355924744
-0.5145387708287151
-0.3678019081871904
0.03951841157886144
0.3282834998450023
0.6812671868342627
0.2494563904031835
-0.5670455459334609
0.5736347063621909
0.1115588681906663
0.8749577348607834
0.01021020416983243
-0.6215808116532042
-0.7490608286396395
0.7993077488082275
0.5304380680418203
0.07013902065219822
0.3011232675455925
-0.3712622884570123
-0.1674483545693373
0.445076586290217
0.08452082918100247
0.8744074188499887
-0.8050724856037484
-0.06933493331418349
0.6353460106916163
0.3103195079734544
-0.4307552621461743
0.5737165687768072
-0.5035775480810172
0.4170864534141319
0.1328153713079957
-0.04672837004696864
-0.5928520994367985
-0.138878558506697
0.7317306579465509
-0.1497500902322902
-0.7809734836464332
-0.6110158747540775
0.3602308196683593
0.2507850562608318
0.6219267184154275
-0.6117165143875125
0.2391132771767009
1.011526789158974
0.04296785616230638
-0.749060831320542
0.2308694338266704
-0.2203250974328042
0.6804589468090714
0.8017668188046122
-0.8017668187180839
0.8376149400007088
-0.833079313688956
-0.004535626391449546
-0.4453454341661572
0.8611039878586572
-0.1472922946967331
-0.3448453553497277
0.7347580460493935
-0.6685594805347429
-0.06619856544812433
-0.7361954640432387
0.1433433646483044
0.1390968519297487
-0.6720689964184687
0.7829968966402633
-0.9504452511530416
-0.3684835032641757
0.2884622021380552
0.08002130339985283
0.1457413978510161
-1.010113538673404
0.8643721407910497
0.4810004745114135
-0.04205936965510389
-0.3080781240881534
0.5862726793112255
-0.2781945553709697
-0.7386109309763117
0.8843523300904803
-0.15700661561003
0.7312336025970101
-0.8404950334119922
0.1092614308627537
0.9764940354589734
-0.5391148167045752
-0.4373792186648458
0.755038445949505
-0.06499656989338967
-0.03356259233689686
0.1845752338462312
-0.1510126410264502
-0.7758136670322866
-0.8394541568764924
0.07319441036417144
-0.7499278768009371
0.5137183829554933
-0.554547957182203
0.1005519778202023
0.7169094473486781
-0.8174614253148393
0.7535964694140835
0.1743086437514192
0.502929044340866
0.497070955684119
-0.05315189383844993
-0.6122840030961529
0.6654358962676701
0.8818869244027924
-0.007479508992379118
-0.7550384459687454
0.7993077489953925
0.1916237289281816
-0.4473749672174477
0.01314272029862328
0.003827975220534367
-0.01697069941716075
0.5887563343421438
-0.437384170076418
-0.1513721647982749
0.7180156781450668
0.01017701786652064
-0.108220555911283
0.4383304098144394
0.1504259231562645
-0.01631263769395836
-0.007001235881996087
0.0233138739690218
-0.0310409083432524
-0.002521681770124003
0.2458032260376815
-0.2614142191718485
-0.9587734341677221
0.001413253242468097
-0.1594656851610528
-0.1226802723858007
0.09451662695251428
0.7224567665965786
0.7289564413179292
-0.1447149942796486
0.674602890898262
-0.574050911640663
-0.2118613841759105
0.3986051522604916
0.6956430750160928
0.02237260315749244
0.2418356552275725
-1.074914970447283
-0.9504452505111428
0.3026957303426487
0.7598013879117909
-0.2092962315724687
0.06599633196525863
-0.7238700184959662
0.9109253669193356
-0.1870553484160651
0.4155857552700428
-0.02791093126617028
0.771182198624204
0.280689110468446
0.3765427057355394
0.06775397736438843
-0.6587110009205316
0.6587110009393589
0.2147186456407012
0.6958942364216746
-0.05647889787854956
0.3906353736071838
0.3790888941425964
-0.0141911448841572
0.02733387819250229
0.4483124871304996
0.03268799043499573
-0.7386109304630462
0.5339780187858801
0.2007800256945375
0.3002043474752939
-0.1156291137036337
-0.6956430735719193
0.1797717286419103
0.7311536370535866
-0.01020567906237212
-0.8136258420033925
0.8238315210737271
0.6964108157290186
-0.7919715393588309
0.09556072355660077
-0.7535964627159252
-0.1505344856880114
0.2119674731443116
-0.06143298661202581
0.07744801383890444
-0.1785068809132221
-0.112600920648772
0.2911078003605443
-0.00776545107174182
-0.00854717918724552
0.7063234011693084
-0.7165290728938398
0.8870524907740581
0.06904163477961493
-0.3115268269231679
-0.5231139506407982
0.8346407776780457
0.1033979186643015
-0.103397921534514
0.327980608904101
0.476503065038305
0.6106338450318555
-1.087136910110318
-0.1940909405233838
-0.5855343399390068
0.7796252804417058
0.01288951528468591
0.2211488376251641
0.3762358376225376
-0.2528124990459875
1.015971709324484
-0.5394686475631721
0.6685256556654947
0.9923974551556987
-0.3817636134474735
0.2289435461620633
0.884352331563792
0.7126339449332271
0.213897641740116
0.7277925608968377
-0.7809734831272573
0.3412889894838659
-0.2846662881357904
0.2605947954886855
0.02407149461183552
0.850605126862639
-0.004603478934067447
-0.8460016481802375
-0.7021256951606444
0.7026658719008336
0.554654564461422
-0.7021256961463332
-0.7126339449208363
0.702665870770971
-0.03368960072028777
0.9081484253209988
-0.02109593163205248
-0.6812671966697392
0.6122370588900947
0.06903013778999828
0.5385793985655833
0.5384023032844044
-1.076981701870988
0.4871982503620235
0.5287734579597502
0.5483473156096705
0.4574978791261424
-1.005845194786587
0.4928083596307331
0.4995890942099239
0.6122370656947913
-0.5256843470620572
-0.4666812702843582
-0.5561041270165976
-0.5137348607955085
-0.1235855827125777
-0.0128273335973975
0.0128273344883498
0.5098127670760463
0.524586800934324
-1.038321661840014
0.5720109873821975
-0.2708877193256884
-0.8829792279217993
0.3438644117655622
-0.6327879186174452
0.3900808665622205
7.711399242925461e-05
-0.8260957707349897
0.8260186568312318
0.420878325267688
-0.02514694465316148
0.8757520712947554
-0.9459413684408545
-0.8337265352285879
0.05632398304196815
0.7774025523107292
0.5554465741309589
-0.4380411380973196
-0.1174054361023495
0.650214865004036
-0.7294234277630062
0.8868237387092788
-0.826767831247385
-0.06005590720848502
-0.01474591468807689
-0.7903265740768119
-0.1112913266087043
0.7137210642991476
-0.6024297377104756
-0.9414790087264265
0.9267330937545434
-0.7315944383558388
0.68827156470324
0.04332287370772427
-0.8019372527671514
0.02831788557872801
0.7736193672905797
0.06192725583715314
0.04147066495275943
0.4328602689962726
0.05911763976631719
-0.8502035622886811
0.7910859224217578
-0.6460490923995906
0.5928971969016538
0.8887760668615328
0.07367446864161552
-0.9624505355143973
0.05504953433318207
-0.05054965517534853
0.3788331526759949
-0.3818980644155952
0.06554801679798686
0.8404988129078511
-0.8404217011493835
-0.7328956128409316
-0.813963259774834
0.02363668549464608
-0.1672074149192347
-0.8479906983056179
0.0212228620564234
0.6223330091176076
0.05226988303136444
0.02028776485785001
0.5351588053383144
-0.8158649990984786
0.8441828878813259
0.5657104455232999
-0.8512427182769885
-0.8678045383142936
0.04034389089845598
-0.02857036146193184
0.833907126883318
-0.8053367653684393
-0.02197204660824392
-0.761465973314841
0.5442811724168941
0.1521296480562318
-0.01804212840454334
0.8937941990207271
0.9830570781908162
0.8615115483366379
-0.8402886881810283
0.1478337140711479
-0.1478337155435972
-0.1175013933495031
-0.4642662687454496
0.02622512782918861
0.2709900355114494
0.0317056951971484
0.386719720933743
0.871822153615913
0.008474271999123938
-0.0162397184251284
0.6585904726532495
0.3414095273634644
0.783618164604301
-0.5836794278493541
-0.7780810253162295
-0.8099402422214725
-0.6799391548763538
0.6799391548873474
-0.1682547704976529
-0.1552685468333681
0.6021424286919443
-0.8113005024740441
0.2091580738135297
-0.4940836900780963
-0.5688416387423019
0.2779834512520311
-0.9719168551258935
-0.8986344867374095
0.8385785730406309
-0.8173705516997374
0.8410072379207276
0.6485022610564747
0.1343393383016149
-0.7828415993827654
-0.766617370117703
-0.1464642805637486
0.7253094497885915
-0.578845169279393
0.02681233574789096
-0.011776444101669
0.01544619536290832
-0.003669750227904057
-0.3522725505612637
-0.1119937137511593
0.8801258824800484
0.7422058842515536
-0.240536585106535
-0.501669299793013
0.6248004531025767
0.6857859602512163
-0.4710673159406135
1.088509308204162e-05
-0.2855060010332168
0.01131932554623733
0.7497644773594503
-0.7610838026670572
-0.3234145917620683
-0.07241438802703407
0.07633421194335338
-0.9678585395100118
0.1218568920005867
-0.676961160347216
0.05435815889579326
0.6397357220973084
-0.6940938810287155
-0.7562076205371145
0.07924646019960041
0.5892707330349339
-0.6616851209877077
0.15685492977354
-0.3353618106495291
-0.7721086722085022
0.005491302018602573
0.3710932068711334
0.5996805785504441
-0.02596400697517311
0.01976323384094096
-0.01976323428440515
-0.01982855644723642
-0.05082058084309302
-0.2338457041883675
0.02474421143544039
-0.01626996273091276
-0.719838791803158
0.2793548175523276
0.6789515745225506
-0.6894402489947876
0.01048867468545355
-0.5950228474377712
0.6493810012442419
0.654616912365486
-0.06534617734331603
-0.6306825306925644
-0.1255250935538962
-1.050187815661798
0.0111725488787522
0.1366611655468226
-0.7085194681173463
-0.7419738636177693
-0.7639666957471355
0.3661107236767948
-0.4051969979751389
0.4632709849823807
-0.0580739866051902
-0.6674282634916823
-0.04109120457719141
0.5001233099744846
0.7306853453651981
-0.2357445892759749
0.1130643174951534
0.9623672402699016
0.446601280452179
0.132115477449483
-0.578716757976775
-0.6767239228689034
0.00929566093384024
-0.04446923632927686
0.03269278458831853
0.6371176025083745
-0.7759961611097578
-0.00237573379037801
0.002375733665281931
-0.6004087062685953
0.6497418248148511
-0.04933311867361601
-0.6564361613072272
-0.113751825028765
-0.6717131213462462
0.05831472616888405
0.6071211655465422
-0.1376449710347312
-0.8181774022073492
-0.5712407819159396
0.5718975691683128
-0.000656787814552756
0.6290956579563762
-0.6186069892073279
0.3224684041496939
0.2135961266066997
-0.5360645307495762
-0.1048562589936885
-0.6020912888449804
-0.0920025943572987
-0.1538074221229095
-0.5129260575780721
0.4043017751911204
-0.499178098864138
0.1262543267922531
0.6787387719679669
-0.8049930986831951
0.5991644750386893
-0.3722748977377413
-0.03292210287095545
0.06613419999843025
-0.5790602613023114
0.5513367737573636
-0.04045344214780944
-0.5108833317310194
-0.3130980337447644
0.3057391359898403
0.007358898572337432
0.4515312629834929
0.1204797250082034
0.05252562366137359
-0.316519769455403
0.1575429967421325
0.1589767728833675
0.2455511117546285
-0.01468167955388732
-0.2951721268179092
-0.3116853172562511
0.3529293359880616
-0.04124401725553889
0.7903825466455027
-0.6277878154432951
-0.0286483462144589
0.4993958387792487
0.2854199348863912
-0.5259565174845197
0.5774529821201714
-0.5774529821184484
-0.2897739751687689
-0.5864961601822776
-0.295551206556814
-0.5864961603012447
-0.5963398071530628
-0.8384804575652998
0.1699209744608272
-0.6015626777785017
0.8211751872629255
-0.003211185003459221
0.1180074238434074
0.4816731558271972
0.09677951924143875
0.1859176193078407
-0.03633279104571439
-0.1495848267454962
-0.02966511894484183
0.5901354778675492
-0.9425270376448086
0.4194130839161968
-0.00734759157756399
0.001551275442513748
0.005796317078455561
-0.644191347747441
-0.1321051515706979
-0.4671917177819555
0.599307196674309
-0.5034867815721861
-0.3194295128891816
-0.2596307314690499
-0.2720928120657889
-0.1114554166933069
0.1114554169185642
0.1535396622847939
0.05842781452383539
0.1970901695162183
0.4485892949787249
-0.5695386896921036
0.1023469683674993
0.2532472072576583
0.4664321407432454
0.5335678600267784
0.6454228151971405
0.0841790711146192
0.0004936056714909037
-0.08467267376104014
-0.2771310084788761
-0.5410463938366509
-0.5471058687219723
0.1148634939068152
-0.1266888801191107
0.0118253866727744
-0.1055766739514001
-0.3852987971519117
-0.05039996299418409
0.6575211476585802
-0.4994517775651036
-0.1447395701265903
-0.3265432484675196
0.2860132022231664
0.1293009145571514
-0.6151421156234307
-0.204587568572677
-0.2630513126353368
0.001637109639768258
-0.4210685291588163
0.3230338138172042
0.09803471573677253
-0.0921714906475516
0.2917342439221916
-0.8959435464793989
-0.4573364720953437
0.6278560264752098
-0.7732554032041545
0.6683991442490123
0.340085718479061
-0.1248472547523571
0.2240245531577203
-0.09917729926111851
0.03077400869897479
-0.5862050549023512
0.02871137546035473
0.5574936791553441
-0.900606325995248
0.5478647408522009
-0.665366134152603
-0.1039484681809435
0.1095308343290084
-0.109530837358215
-0.3165088851058471
0.3586103727379495
0.02022277394343263
0.02347010650767855
0.06070895489378194
0.5044740617889276
0.6677238319361265
-0.7370587676334356
0.02729807137114235
0.01974494257062936
1.828596697262572e-05
-0.006580167427433455
0.006580168078393019
-0.4102489955087105
0.5307287200479749
0.01578683583807827
-0.01578683569468038
-0.7926737570749318
-0.06053639646178156
0.1224636464327806
-0.4531736116619688
0.5555205792315144
0.4507755323834746
-0.5001086470165278
0.1502569517613944
-0.1502569527246293
0.04001171974776064
-0.0126778392745172
-0.04190246630693259
-0.9755775686601493
0.5381983514594377
-0.4683229886444686
0.04147066294225404
0.5152161890635699
0.03048622675875435
-0.5457024160794104
-0.6164755153863919
0.1170237386599757
-0.3290901952384898
0.01359849590929712
0.3154916986744899
-0.1551767706976591
-0.08056782762151528
-0.5410172680869632
-0.04518778051062629
0.1366611675175435
-0.04067817029313625
0.03830243161081007
0.08104854149919723
-0.0810485378420754
-0.5261444162305851
0.4849003883393493
-0.4149122277098922
0.1612961678368134
0.6223219968215581
-0.0970436020726986
-0.004317034234060968
0.00431703417770515
0.532981514913993
-0.07998330865534105
0.006132912568742064
0.02713033280152621
0.03489050826648633
0.6881605129574379
-0.7681438218316524
-0.6586300365764445
0.6299816932133242
-0.1097125876376252
0.3139952778281268
0.7455262493320414
-0.01982855489063001
-0.2652697875486195
0.1496406805281792
-0.7445956915373257
0.4837575902289719
-0.4268381600405681
-0.1012593179786114
0.003263907228721667
-0.01452488851810515
0.02523783527719784
0.411776887071406
-0.1215656056473338
-0.3893177264050635
0.629011878781495
0.01940748554835776
0.009034291390666291
-0.009034291145707429
-0.3520521098895608
-0.07755511436045265
-0.5602678129254729
0.5570566276970427
-0.2374481706238376
0.4647070818186725
-0.1507024616292266
0.7311875587239605
0.6693819340434717
-0.0406781718712709
-0.6174357366696324
0.5611613783630823
0.2821408649425253
-0.2770576238907554
-0.005083239376205312
0.5378102058695727
0.093442993125622
-0.03884481963085652
0.1961552835921535
-0.1573104633749603
0.1198933652772572
-0.1198933623955064
-0.8586156125430877
0.002423235430221689
-0.1134466898946286
0.1405770213440972
-0.131494424497939
0.1314944249442451
0.01974494919807026
-0.02414559379052936
0.670293465142882
0.06086017243749004
-0.3226195919926891
-0.06267920451827642
-0.4712889680644185
-0.0444023861960017
-0.1512682226060563
0.1512682234796775
-0.04466094728879695
0.1437022985317969
-0.1437022991709921
0.1362719367164082
-0.1362719348224527
-0.3162061042543039
-0.1145491578011673
0.2259605924446021
0.1031609902435952
0.03478408505360977
-0.8212355534218504
-0.1981813724942731
0.169882243788401
0.021741480428855
-0.2642135863260771
0.1262380508770384
-0.1262380514264695
-0.4143436342171652
-0.08483446281270636
0.2356916635003435
0.002863363135648806
0.04037037049298813
-0.5446613768082041
0.5783509775354527
-0.03388969355965259
-0.01077125137617878
-0.02461535012005735
0.01193750307773173
0.006554646447573809
-0.1847904219869332
0.1782357756752836
-0.1081070149435477
-0.2272547938210107
-0.144356087379867
0.1443560880470399
0.07239286455827883
-0.07239286432319064
-0.0189370525966773
-0.1085515164108154
0.1274885684210848
0.233919002550507
-0.1834917555310149
-0.02362831958531496
0.02364659515371917
-0.1287626253860323
0.6136630121818339
-0.03906256610323594
0.4267579626089211
-0.04202897102552428
0.06534283733121356
-0.1530361075001734
0.1530361087853438
-0.636654749438371
0.3080757819650968
-0.0791322358293864
-0.2340769274365782
0.00365274623706154
-0.1213756704530431
0.1617460419784454
0.1949550703738625
0.09615272784691825
0.09592116392234781
-0.06103065602891582
0.07320651411102005
0.04165697938449982
0.06419409298961785
0.1056881552614819
-0.1002325432197636
0.2132968739966547
0.01141002973167371
-0.1165024955942195
-0.1008711635577315
0.09610515566570121
0.004766007070243568
0.01071065320971607
-0.02262149368053497
0.03732579676611174
-0.0373257967446345
0.07477961313413228
-0.05537997953741974
0.05537997981354551
-0.2243550675489291
-0.05115965601339714
0.01179127537205749
-0.1031296039182287
0.0163785726971691
0.1088623398282351
-0.1088623402127369
0.2929897872252998
-0.2707755730465836
0.1626685547690971
-0.05070914762044425
-0.2200664248946962
-0.0168072389162174
0.0168072386968874
0.3675966315856715
0.285164871038426
-0.5280674895346131
-0.09392432906185828
-0.03276455143446345
0.5288927942649934
0.2093036379683779
-0.1691170600585675
-0.3806003171233908
0.07657949572456833
-0.1471570282959768
0.1867612175710186
-0.03960418911787644
-0.06720535937371998
0.06720535918020584
0.8221057450625214
-0.5603205381878857
-0.004154216973309354
0.01486487164075882
-0.0200389981918685
-0.2873736992594337
-0.01746424194653065
-0.01286167238876551
-0.1321850397003214
-0.5723266333631282
0.5561234330828829
-0.5687196498245538
-0.006912130123546045
0.09919855321758322
-0.00176789075556523
0.01676417446607417
-0.1671960261138109
-0.3361126316064789
0.2329830276453813
-0.05400411712910848
0.0350670632334214
0.1322257578901632
0.1735133773432941
0.3423173352956327
0.2758730765601755
-0.2776409676851354
-0.06256873749271005
-0.1551479386536694
-0.2204784356319317
0.07452267752177959
-0.01032858401248888
0.2135050011696203
-0.1967408271488837
-0.0862446782846477
0.1594511912133003
-0.3551235217528844
0.2080196129946021
-0.1916410404799014
0.08963655810311903
-0.4789542806049236
0.1738995417869635
0.1707640289686421
-0.2570087097866173
0.07329966659680721
-0.1948957625278921
0.177431521032696
0.01737571930858984
0.142075471402719
-0.03959313011697582
0.06572382945681005
0.4672576859753248
0.02051855905421031
-0.08471030509077565
0.05490748828356373
0.1260521286477727
-0.2600826272993181
-0.2309515565614243
0.5597265459160443
0.1569216347591402
0.07877002880220296
0.0747248170989403
-0.03107419033409569
-0.002717536660607207
-0.002365695843722428
-0.03259407377405581
0.170640145342185
-0.1775522758887196
-0.05947247277913567
0.01949238479429335
-0.1471615901199254
-0.05282029077135164
0.1538243916512091
0.27704556513668
-0.04051459886776879
0.009219966257247837
-0.255165734039571
-0.1317274830255285
0.2363120457014452
0.1785212847668417
0.1295544979580796
0.02186395794026957
0.08842599845361372
0.05230693899673877
0.452167122844408
0.01617603912648398
0.09803193618609715
0.04292265525204216
0.07235767911137622
-0.1152803333329636
-0.2429026165160916
-0.2003852476834578
-0.01968117893216385
-0.2019087126603681
0.2748469088416895
)
;

boundaryField
{
    FrontBack
    {
        type            empty;
    }
    Top
    {
        type            calculated;
        value           uniform 0;
    }
    In
    {
        type            calculated;
        value           uniform -1;
    }
    Bottom
    {
        type            calculated;
        value           uniform 0;
    }
    Out
    {
        type            calculated;
        value           nonuniform List<scalar> 10(1.035545566506773 1.064263745512299 1.022785397299183 1.021581818632182 0.9959001817764676 1.01332395513682 1.034399568464824 1.062925328833405 0.8672269614401791 0.8820473667419021);
    }
    circle
    {
        type            calculated;
        value           uniform 0;
    }
}


// ************************************************************************* //
