/*--------------------------------*- C++ -*----------------------------------*\
| =========                 |                                                 |
| \\      /  F ield         | OpenFOAM: The Open Source CFD Toolbox           |
|  \\    /   O peration     | Version:  2412                                  |
|   \\  /    A nd           | Website:  www.openfoam.com                      |
|    \\/     M anipulation  |                                                 |
\*---------------------------------------------------------------------------*/
FoamFile
{
    version     2.0;
    format      ascii;
    arch        "LSB;label=32;scalar=64";
    class       volScalarField;
    location    "1454";
    object      p;
}
// * * * * * * * * * * * * * * * * * * * * * * * * * * * * * * * * * * * * * //

dimensions      [0 2 -2 0 0 0 0];

internalField   nonuniform List<scalar> 
808
(
-0.03450966781892992
0.04435091973922283
-0.01120138971981387
0.03644314894444851
-0.299420438728855
-0.05532634446060671
-0.01522567994817755
-0.02408588810822662
-0.1971440476472922
-0.08417658832489841
-0.01051020984677134
-0.2543117171344879
-0.03064530109869297
-0.01363384418431311
-0.1202822812925888
-0.01416348065808755
-0.1369216930401198
-0.01367907914707758
-0.01246592626126311
-0.05578580761565952
-0.007221095763433477
0.1175814702502154
-0.06215380547947385
-0.07191347144792586
0.1756305762612448
-0.09992949737487136
-0.1527328092447309
-0.02039456732925871
-0.0174649435841866
-0.02567206591316549
-0.0202949424444256
-0.05861328261156876
-0.02275856667791647
-0.01685945260093466
-0.09989274648612718
0.3444956490154879
-0.03934416057733475
-0.01644726030357995
-0.02283682657715364
-0.02649906929340822
-0.0906191961327551
-0.1269829406635957
-0.05185064383926488
-0.02119364541300071
-0.05403755822335631
-0.04119959429379055
-0.01203194375403966
-0.184799320166127
-0.02702596718239966
-0.204484484981088
-0.01685352896946024
-0.06745451457081213
-0.06067540553669223
-0.01437524925538668
-0.193124896391988
-0.02831619355026374
-0.0105225092785099
-0.01401272375371393
-0.1006123962307225
-0.03978932375886376
-0.1107737075759003
-0.1262720316224467
-0.01412032174695961
-0.1296313545948203
-0.01744007893075855
-0.05164074291971164
-0.1655334273657508
-0.03547049678198551
-0.01507934443039516
-0.4409488991907713
-0.02648148339790506
-0.3019559732474658
-0.02163076689851081
-0.02095377658023445
-0.06525086232979573
-0.01777298508541841
-0.04257819898882058
-0.3620973110033983
-0.03612478939909555
0.04064136517035467
-0.09108511538891832
-0.01697079821831285
0.05709981422992605
0.04478710216637296
-0.0170853383185314
-0.05230225719074536
-0.5423331771844201
-0.2259322887182643
-0.05224765341941037
-0.1123184324232162
-0.05673602957157622
-0.1330026986901626
0.0395393009390201
-0.02519171106094765
-0.06175212225912745
-0.1216070379428181
-0.03831049269095645
-0.05169678981802776
-0.1165348093990362
-0.140414325335415
-0.05273701786771005
-0.0473724778274495
-0.05449946078900608
-0.04484728907657901
-0.05742166071262372
-0.07445656957664613
-0.039883381515754
-0.01075166173060194
-0.04026295248249294
-0.1242854154767074
-0.05038706670864003
0.08239658557644301
-0.04237757521981733
-0.007673208098168946
-0.02761934932089076
0.1806305150446597
-0.03886076085823923
-0.2688498881721941
-0.02063035520777754
-0.05367481823595599
-0.03888655534186949
-0.04879176802267842
0.01343572406039774
-0.04880761158919978
-0.03539082296589609
-0.2170337532064932
-0.04136716879028567
-0.004472665906019464
-0.07607959472162266
-0.06873913881550858
-0.1522781175332199
-0.02121928349311027
-0.07542164004487849
-0.04265605245831327
-0.02297045095904688
-0.0156702098255932
-0.006057687742604219
-0.00761827499189146
-0.05238965945055783
-0.04983206230516486
-0.2103414505852806
-0.05669877340396286
-0.008315296536866461
-0.02222831596834157
-0.1471281441258162
-0.002061657640407377
-0.07643506796449712
-0.02226608286737828
-0.000208420645169187
-0.01008062921186395
-0.03328316261049146
0.09446811337977619
-0.03877396498818896
0.2522372009398056
-0.2587006532905037
-0.1322381801298335
-0.03771806097258242
-0.09066381495422574
-0.009004361426928009
-0.1133208901811033
-0.1731339991625446
-0.2125064009453763
-0.1816268097724374
0.0562508646781054
-0.06294160523630273
-0.02047981444745977
-0.06694717413448607
-0.1742824028895779
-0.02338553110336286
-0.0187400614117373
-0.05207528157813518
-0.01940940364940174
-0.006936696172329125
-0.1082217845151146
-0.02331363220691042
-0.04529778511800556
-0.0700136046621387
-0.1616483593336274
-0.0333063086378646
-0.3887457974408134
-0.01783890261022415
-0.2252796749339077
-0.04435576780186631
0.0319090218658059
-0.1049169606139995
-0.01545486318817571
-0.04256152393205243
-0.1055000502722655
-0.01782411181018943
-0.09634337006850226
-0.2027743885108052
-0.07207549653125674
-0.02403262550117465
-0.04834856775482094
-0.04280429885544694
-0.2008250820966631
-0.02222868112667924
-0.01921141457685236
-0.01131780847469322
-0.05610527617566063
-0.05079471988570439
-0.02263090871582778
-0.02064795320327434
-0.2381593790750709
0.127533146440292
-0.2041502879362376
-0.1965708141455997
-0.01172403757953904
-0.01141043863089459
-0.06699870198208717
-0.00987871561422001
-0.4995678260449901
-0.1274598946373834
-0.01941161901459685
-0.001321253398718416
-0.02391156367483598
-0.2810601623436079
-0.2766572596795807
-0.007495438151991349
-0.01792945490613599
-0.002211141250397932
-0.3474572286130508
-0.02848810642993225
-0.02932940071058084
-0.01264245924966756
-0.01954147987178748
0.04972141339464978
-0.1223404486933835
-0.013985682589775
-0.02085458124396063
-0.04427406717886175
-0.01833016056594384
-0.01632981509778969
-0.02345587681080823
-0.06733444304348279
-0.011330004820719
-0.01894954152075204
-0.008870768877879999
-0.00132131188869708
-0.02938131418371076
-0.001936162257208261
-0.002065638070473241
-0.005884253811241642
-0.02552599217890054
-0.008110530261971099
0.001657937191043007
-0.004092166985236434
0.001177429388469727
0.002338069495983571
-0.008681743490718702
-0.1320601170695902
-0.00295941455460517
-0.000264471537383771
-0.04764104438868063
-0.02138118994830245
-0.02419061817026694
-0.01410288160963132
-0.006158094142734847
-0.02106084787992963
-0.03879214837533065
-0.01487351859725617
-0.01261578001287908
-0.01181466564181944
0.005678224430386586
-0.00977991838788311
-0.01304278962383898
-0.01131142347480689
-0.01028052643976467
-0.01005400268936484
-0.01092356802837201
-0.01373309454300194
-0.2972060365454742
0.05999902152348691
-0.01508949394919905
-0.01603160536199422
-0.01255548211246372
-0.01252770800035655
-0.008337276581491627
-0.09965505229399528
0.01087274971196312
-0.01428826251109215
-0.0141860616952909
-0.01071118620332951
-0.05200783673991217
-0.008174112447103926
-0.0139690027145338
-0.009446503288372803
-0.002375922570289704
-0.01067284666932698
-0.01046591196496664
-0.02450923992070778
-0.0158825845949277
-0.0123637396470835
-0.01335979170722793
-0.009726291165871453
-0.0132784173576124
-0.01093978257504279
-0.05863289406369661
-0.01312532995108118
-0.01214266674574336
-0.009022944380137647
-0.01525670462618543
-0.01415845914825321
-0.01571058209900102
-1.373822702579518
-0.09940390021061196
-0.01197433471490803
0.02285117935807625
-0.1636583712787011
-0.0937454827271879
-0.01177984650507626
-0.01419526586440784
-0.2481160113192513
-0.02944046910621739
-0.01900809441129821
-0.01170926584143209
-0.02023750444209545
-0.01108596604685639
-0.03074164354310046
-0.4116078260628895
-0.01204135698135528
-0.01408193423477108
-0.004598531819336709
-0.01050697341955984
-0.009181790700627714
-0.01406136934961439
-0.009053263127960154
-0.02688584916785787
-0.01154079951695999
-0.1652375760985555
0.01875281752765663
-0.007545473483756681
0.003315457085612481
0.01194222346868722
-0.0482419331195759
0.02872967504140443
-0.01274071988354292
-0.1345736453300228
0.2825141579630534
-0.007935416528988879
-0.01330763959109855
-0.00813915035997536
-0.03331671082013338
-0.1241723750008152
-0.01339791192573518
-0.0121319156293698
-0.01745814860409772
-0.01358574675106145
-0.04131050135122902
-0.2172025992429075
-0.01012437178416726
-0.04248727407312876
-0.03897164189308232
-0.1739010412973096
-0.1554666726525979
-0.155006950254656
-0.2488030310726796
-0.004138758128696108
-0.02093718802667136
-0.01531196887689193
-0.01360107178435968
-0.03328873009172962
-0.02443546549673288
-0.01417365999082553
-0.0149922728664925
-1.075925524579998
-0.003119462915480353
-0.01363528549984905
-0.01813625770720408
-0.01813264210892038
0.005696746551365093
-0.01398657896982761
-0.02649803445197569
-0.1623123725510523
-0.0135564139722857
-0.02132152867138899
-0.01446532909582214
0.002020802923092169
-0.177554612133548
-0.01298400486707077
-0.1530244416619612
-0.0156958067250303
0.008647501533371814
-0.01409814005584782
-0.02376347067147914
-0.01622720762039584
0.00707189902422847
-0.2703506824439708
-0.02621626622577124
-0.01665364247630234
-0.01402230021054656
-0.01039578553665014
-0.02985781843638322
-0.01398141351633163
-0.02086624947604609
-0.02085655979144543
0.008435513147899927
-0.0991759318151665
-0.02157485407592145
0.009476063308986213
-0.05485042191715695
0.1703122179118618
-0.1047446017819152
-0.3194463073053508
-0.02956074536970706
-0.02564262197225413
0.1500630672968961
0.09566109930664689
-0.003562383038850978
0.05224477454793335
-0.01546912471776709
-0.01367542432276199
0.002524398510204302
0.009769637329743848
-0.0658663674342987
-0.004679511955120551
-0.05666262803011334
-0.02294778790283232
-0.01568094223679947
-0.03650643049382938
-0.03293224004676124
-0.006679482793004735
-0.01460075059807043
-0.03789517829228083
0.03247973612722527
-0.03870453503418191
-0.01366435388628646
-0.1180620098292605
-0.03125058178610526
-0.03933167390910826
-0.6732846350269728
0.01425376484915429
-0.01098879810205369
-0.005410503399948889
0.1812168089423266
-0.09624372735224049
-0.03554265687041782
-0.2444305561203962
-0.01566957067402104
-0.01627354320077671
0.06985403722952908
-0.1830230185598022
-0.2268699280667306
-0.1900245774953417
-0.681276234183352
0.01125931969842379
-0.0190471213748123
-0.0154598385091776
-0.09169830730017181
0.1182965871392323
-0.02178727615579652
-0.2478951533453636
-0.03572457369497122
-0.006734139298326997
0.2775188801392175
-0.01092486157427186
-0.09226226765066688
-0.1509376639752157
-0.0047982412342931
-0.04112913824927852
-0.04558020605476584
-0.1980951789220389
-0.008346443232331946
-0.04092048315929887
-0.003504971851799777
-0.5477852146047077
-0.1970622189018948
-0.1769985111379505
-0.0233042800896209
-0.008289898207122682
-0.06107157890532673
-0.05724736699867795
-0.01602404347307582
-0.06862946575925105
0.003886769207678463
-0.01788306374868233
-0.09567653717919644
-0.272675420554406
-0.009398413517608679
-0.0252958505703771
-0.02160643574759268
-0.07537747972851487
-0.08996565739956282
-0.08880359163514537
-0.01114262567344839
-0.915755920663632
0.1613976783930713
-0.08266425801082102
-0.2535504864247222
-0.04190836182429131
-0.009455937993543641
-0.2459138018492263
-0.1897784794209202
-0.03195721450493027
-0.1167682794988041
-0.01784464612561602
0.5624974452725907
-0.02461358121753541
-0.2178632932316112
-0.02554001046893497
-0.004217171098302975
-0.01122913209451005
-1.251499317189444
-0.1829026507675349
-0.2302073848782417
0.005329907632698286
-0.03862002285136483
-0.2392690293090452
-0.06629773460628448
-0.05159098759211651
-0.1437783679206643
-0.1872440470314182
-0.06895855193012536
-1.222260858971997
-0.155596816855052
-0.5328865727005265
0.07881631624068161
-0.006688110697767971
-0.02142296868256102
-0.04368686210741096
-0.03929199500674678
-0.0280994390751794
-0.1310727761684892
0.08072017411296617
-0.00446823950310977
-0.009762825640857323
-0.5687644934459524
-0.8556245958744172
-0.180088400386299
-0.007733658212597409
-0.1259518085973079
0.0006732759096938512
-0.000761342118475244
-0.002593858319584588
-0.06138191014484444
-0.2359936605271492
-0.01340428034335338
-0.1135645932345638
-0.154771440350616
-0.01314585353237431
-0.0350517177664926
0.02582285917465088
-0.05811574675752142
-0.07096556452886532
-0.4969457072797206
-0.2408354867013242
-0.08053559344312465
-0.0740586728693169
-0.01954332606157611
-0.1128387463131057
-0.1624618402372175
-0.08079330506962357
0.02684507092126555
-0.08591054032253297
-0.04927299442779336
-0.01495399515357652
-0.1147389390369387
-0.2775011561646119
-0.05818298943564058
-0.01823333104372793
0.001814835642894288
-0.01022168106594261
-0.01076242594161334
-0.2308311994319831
-0.01415376241333597
-0.2194981790090992
-0.01079682238861336
-0.06736255146309392
-0.003707954274477862
-0.02322167120243096
-0.3863636292327423
-0.9191290787355871
-0.01125513710221611
-1.045994080861606
-0.6065041875910807
-0.01073386633000631
-0.6552928227840378
-0.1819328898634651
-0.004955632239399886
-0.1256844684845577
-0.01719166808192827
-0.123494854461201
-0.06604178414092411
-0.07623970257215368
-0.005601816881647747
-0.003492209338592802
-1.338377554101556
-0.01121117807120191
-0.1901007918999716
0.0008308667953993815
-1.011863883681766
-1.239669082517509
-0.0798639143074989
0.01842835023722752
0.1645811112799506
-0.004962010963290327
-0.02296516094629562
-0.004351995434670356
-0.2432423060788429
0.3659493361764641
-0.04164645580429379
-0.2122803495466981
-0.0151839698265667
-0.6565145643897959
-0.07353427085895624
0.1904760289956288
-0.2967839130496808
-0.05039056109110279
-0.06962712613601463
-0.01578135533216145
-0.02150509213513202
-0.5858471405319542
-0.1501849385268106
-0.09242868635615353
-0.1203931863770507
-0.5542694414315879
-0.04489558920897832
-0.9070107581594221
-0.001052851006937394
-0.2411359421416079
-1.048359760508327
0.1692860641223876
0.2917532822858999
-0.1721282854162585
-0.1915091518604257
-0.2092956620280126
-0.06712342658163467
0.02488394873618193
0.04935492128258932
0.004904331600180636
-0.155338996309837
0.025407161331783
-1.359088019686113
-0.08624386170790344
-0.4757635881390648
-0.331431321796498
-0.2140464055534818
-0.1779935726728159
-0.01696291409065161
-0.01538009872699699
-0.09595889254811339
0.1714652385240052
0.3854136146607017
-0.2174564211637878
-0.1522851631089741
-0.2325814940427071
-0.06307577350766073
-0.159726428760717
-0.1689571722544521
-0.1265499607578954
-0.1120473500391704
0.4667724283676211
-0.2775986538915593
0.4307491889164797
-0.5939402652039316
0.07178781051694128
-0.1942000609659456
-0.06706602935538301
-0.07564275164435814
-0.8858435277121037
-0.2213723382654286
-0.1906981743009044
-0.3511697097226992
-0.4621512837422201
0.570272665914909
-0.2077623207481042
0.001509093360785442
-0.0690938935428531
0.3437458150982583
-0.03614078659449625
-0.1196087710247295
-0.1798207607309082
-0.06468358044482811
-0.01637961896701232
-0.1955679017643338
0.193189175891454
-0.0125930010031203
-0.0975574799016861
-0.1723619591400828
-0.3143790276189105
-0.3106574154442986
-0.07846911909471906
-0.009842253866784632
-0.07551983158113597
-0.6547396121936901
-0.6694167154122123
-0.3296454929409496
-0.05851588634682136
-0.0506638127077769
-0.0248215558050002
-0.06890537130806156
-0.05629698343698931
-0.3641170681904014
-0.9577293940141416
-0.00905651925508383
-0.0841847488869729
-1.139585633310581
-1.036101969099083
-0.1053687590261253
-0.03995024299626651
-0.06886892927621119
0.3905803501416535
-0.3422533611083358
-0.05224944254562301
-0.600930102297118
-0.133498455929608
-0.2508122358195127
-0.2113509854809736
0.4741290059947212
-0.6317166205322104
0.07392241423671707
-0.02890201159682702
-0.5639171571693354
-0.05288769031727023
-0.3619702386626422
0.1076836418100368
-0.1918343099190236
-0.06069903783694235
-0.1281176682348547
-0.3611878478635303
-0.08744925065384555
0.5142020401177715
0.08619287449635317
0.4709447299583939
-0.1236985834788745
-0.2032868024612935
-0.5143935400066444
-0.1316601266288148
0.02570019402605385
-0.05457757536761726
0.102006252731972
-0.3076405448687017
0.2364103806106383
0.007448711837217318
-0.002995621562199955
-0.5113493428763137
-0.1836572619939857
-0.09830460618556404
0.581234281288993
0.1390622569792491
0.3462732090383847
0.2255518854633818
-0.562553576825201
-0.2146249621728845
-0.2182241866687075
-0.2339458495773757
-0.06131596620352481
-0.6918259869420302
-0.1929578568678503
0.3058264427408441
-0.2091669133709031
-0.01109164554146575
-0.1667867288763069
-0.0105859107867607
-0.1660503454877478
-0.4414472158555514
-0.07700740900028046
-0.2016172825237139
-0.07418266893482589
-0.1065214981936081
-0.1354676016224637
-0.07326434101756571
-0.4457316870757699
-0.4137176351863961
-0.02574357426127116
-0.07586963105592708
0.3269106780630297
-0.2495718627492568
-0.1759204472848938
0.5255846162483738
-0.1980124200758041
0.01898945753854664
-0.4519479584004817
0.04654925643790618
-0.06074997181193059
-0.157794974308245
-0.5871050977946729
0.1614693037841332
-0.5788006452533722
-0.5368343143142873
-0.1045887570200092
-0.5088887303246735
-0.03663223713161286
-0.1517994231246208
-0.410902438396247
-0.01621064996872551
0.286921152471
0.4896332129937943
-0.163734874094645
-0.006888173537087411
-0.07489423339986646
0.525347369692731
-0.03267563945482062
-0.4421612583799447
-0.03209684833268796
0.460616050811262
-0.01600634409265735
-0.5464494394837779
-0.2394658252960339
0.176573662867965
-0.3126128587543027
-0.1801644434851476
0.05094643803993922
0.03254073002829534
0.05538706430886282
-0.3016825462923934
-0.1573677662887268
0.4128866920042178
)
;

boundaryField
{
    FrontBack
    {
        type            empty;
    }
    Top
    {
        type            zeroGradient;
    }
    In
    {
        type            zeroGradient;
    }
    Bottom
    {
        type            zeroGradient;
    }
    Out
    {
        type            fixedValue;
        value           uniform 0;
    }
    circle
    {
        type            zeroGradient;
    }
}


// ************************************************************************* //
