/*--------------------------------*- C++ -*----------------------------------*\
| =========                 |                                                 |
| \\      /  F ield         | OpenFOAM: The Open Source CFD Toolbox           |
|  \\    /   O peration     | Version:  2412                                  |
|   \\  /    A nd           | Website:  www.openfoam.com                      |
|    \\/     M anipulation  |                                                 |
\*---------------------------------------------------------------------------*/
FoamFile
{
    version     2.0;
    format      ascii;
    arch        "LSB;label=32;scalar=64";
    class       volScalarField;
    location    "494";
    object      yPlus;
}
// * * * * * * * * * * * * * * * * * * * * * * * * * * * * * * * * * * * * * //

dimensions      [0 0 0 0 0 0 0];

internalField   uniform 0;

boundaryField
{
    FrontBack
    {
        type            empty;
    }
    Top
    {
        type            calculated;
        value           nonuniform List<scalar> 
15
(
142.2787122610384
133.5795164278039
138.0704982899019
144.4092268880337
159.7728363674113
131.3688678411313
140.131480438652
135.3619262309342
153.4397284434611
135.7422087300593
136.096859797973
136.7697351690166
125.2532857795409
132.9063268970446
123.9481451432058
)
;
    }
    In
    {
        type            calculated;
        value           uniform 0;
    }
    Bottom
    {
        type            calculated;
        value           nonuniform List<scalar> 
15
(
155.565205939536
158.1152919775279
141.0850098388219
142.0567085181969
141.1797548099256
148.4334336785823
142.7004501087382
143.1593726764398
143.4237145303865
134.0547385060538
125.7292803421072
141.5515590056037
122.4096568087204
123.4906958917046
124.1355238096197
)
;
    }
    Out
    {
        type            calculated;
        value           uniform 0;
    }
    circle
    {
        type            calculated;
        value           nonuniform List<scalar> 
32
(
56.34604532800363
22.23160587444942
65.33462723525247
23.45377406050964
19.07847075511178
56.14753998304639
56.81096072615858
24.09459923726682
22.3920913497373
65.55801970666681
40.15828720400751
63.05855346292731
50.31068897185986
13.70638305903411
23.7792201783548
18.56789752315513
38.90398336324527
59.58699030226058
60.98477943613712
24.53518947874229
65.70110290537335
63.84205099929797
62.93979278417658
59.94692478863281
64.0781539240749
45.92181927966339
66.34456658701077
32.02748507554173
38.0477652036233
55.78061035245842
20.98805628575992
43.18464099961595
)
;
    }
}


// ************************************************************************* //
