/*--------------------------------*- C++ -*----------------------------------*\
| =========                 |                                                 |
| \\      /  F ield         | OpenFOAM: The Open Source CFD Toolbox           |
|  \\    /   O peration     | Version:  2412                                  |
|   \\  /    A nd           | Website:  www.openfoam.com                      |
|    \\/     M anipulation  |                                                 |
\*---------------------------------------------------------------------------*/
FoamFile
{
    version     2.0;
    format      ascii;
    arch        "LSB;label=32;scalar=64";
    class       volScalarField;
    location    "432";
    object      yPlus;
}
// * * * * * * * * * * * * * * * * * * * * * * * * * * * * * * * * * * * * * //

dimensions      [0 0 0 0 0 0 0];

internalField   uniform 0;

boundaryField
{
    FrontBack
    {
        type            empty;
    }
    Top
    {
        type            calculated;
        value           nonuniform List<scalar> 
15
(
142.2888387367508
133.5763111122522
138.0624045243239
144.3969670260632
159.7624334343708
131.3667509790305
140.1271345932825
135.3475833247354
153.4549899734453
135.7241344906267
136.0845560257553
136.7750193449612
125.2629880833451
132.9124781497829
123.9569319902365
)
;
    }
    In
    {
        type            calculated;
        value           uniform 0;
    }
    Bottom
    {
        type            calculated;
        value           nonuniform List<scalar> 
15
(
155.5679273952063
158.1184172713164
141.0944771860517
142.0498580874867
141.1815362944874
148.4349960499273
142.7071283957429
143.1491499409356
143.4212781913683
134.0641663439355
125.7295530008177
141.5598337751631
122.4055884873809
123.4853837812729
124.133574677893
)
;
    }
    Out
    {
        type            calculated;
        value           uniform 0;
    }
    circle
    {
        type            calculated;
        value           nonuniform List<scalar> 
32
(
55.99716578361921
21.91390737143245
65.21971710597187
25.83264817894708
20.23413620757595
56.2355305254809
56.59614139356975
23.75531899918915
22.16678708139332
65.46224607141014
39.7732780913618
62.90585541780564
50.65263268876177
17.62662702772329
22.72819801230201
18.14272468123827
39.35686203953177
59.82816775908721
61.06865554944461
25.27272178581469
65.79934792532322
63.75450162336946
63.10334351245733
59.8604328350576
64.16557410349401
46.01861720189765
66.46564071751604
32.14529672654795
37.91241197770054
55.68549363705682
21.21765875888466
43.08675696059449
)
;
    }
}


// ************************************************************************* //
