/*--------------------------------*- C++ -*----------------------------------*\
| =========                 |                                                 |
| \\      /  F ield         | OpenFOAM: The Open Source CFD Toolbox           |
|  \\    /   O peration     | Version:  2412                                  |
|   \\  /    A nd           | Website:  www.openfoam.com                      |
|    \\/     M anipulation  |                                                 |
\*---------------------------------------------------------------------------*/
FoamFile
{
    version     2.0;
    format      ascii;
    arch        "LSB;label=32;scalar=64";
    class       volScalarField;
    location    "32.7";
    object      p;
}
// * * * * * * * * * * * * * * * * * * * * * * * * * * * * * * * * * * * * * //

dimensions      [0 2 -2 0 0 0 0];

internalField   nonuniform List<scalar> 
808
(
0.117547
0.0234922
0.0583278
0.11737
-0.230452
0.0190657
0.0121955
0.0341592
-0.134525
-0.0334743
0.0519729
-0.149721
0.0343627
0.0169725
-0.186298
0.0261931
-0.181298
0.0150435
0.0408596
0.00795023
0.0420704
0.390625
0.0854844
-0.00266324
0.466965
-0.126141
-0.0627918
0.00926111
0.00968916
0.0223054
0.0118749
0.0168285
0.0278186
0.00650343
-0.0965861
0.631043
0.0227372
0.0275555
0.0259482
0.0269251
-0.0616184
-0.061958
0.0474438
0.0351638
-0.114049
0.102152
0.0256115
0.00703889
0.0260341
-0.176989
0.0138126
0.01418
0.0576102
0.00131162
-0.0698527
0.0237374
0.0121938
0.047764
-0.0301104
0.0169798
-0.302092
-0.00104679
0.0400483
-0.19921
0.0400466
0.0586873
-0.301319
0.0322859
0.0462914
-0.279823
0.0304021
-0.311177
0.0276938
0.0245143
0.183072
0.0291809
-0.00179273
-0.0501493
0.0199935
0.327423
-0.0851583
0.021905
0.0405941
0.271487
0.0340571
-0.0194261
-0.356152
-0.090179
0.0319338
-0.136257
0.0372456
-0.108593
0.266462
0.171633
0.0539519
-0.328917
0.0332691
-0.0800542
-0.118657
-0.281909
0.0187892
0.00613183
0.0409194
-0.0127097
-0.102893
0.0717466
-0.120687
-0.0288109
0.0210326
0.0249635
-0.0510699
0.34674
0.02763
0.00642014
0.0285121
0.457376
0.0186076
-0.266666
0.0290624
0.056724
-0.290996
0.0472416
0.020324
0.0575123
0.127509
-0.0350392
0.105022
0.051812
0.0258182
0.0806563
-0.351712
0.0369618
-0.0512884
0.141426
0.0312899
0.0186647
0.0106656
-0.00920274
0.0271491
0.0119073
-0.267546
0.0463191
0.0495378
0.029834
-0.0113884
-0.0355114
0.0952215
0.155937
-0.183279
-0.0471622
0.0289875
0.356438
0.0328671
0.545083
-0.27089
-0.0712197
0.0214476
-0.141952
0.0210159
-0.0860526
-0.303582
-0.271639
-0.314218
0.0243394
0.073853
0.034135
0.0257052
-0.329148
0.0239333
0.0442581
0.0411206
0.173928
-0.0483849
0.119616
0.0226391
0.0690303
0.0838146
-0.165202
0.0290868
-0.33733
0.0431458
-0.116836
0.0215471
0.263342
-0.130076
0.130949
0.0328086
-0.168459
0.0402399
-0.118881
-0.259073
-0.0717656
0.0284238
0.0802142
0.0213653
-0.241059
0.0265991
0.0381012
0.0128896
0.0946826
0.0658948
0.0369931
0.0294237
-0.305416
0.384704
-0.251324
-0.303606
0.0099062
0.0670934
0.0282842
0.0183695
-0.385058
-0.376393
0.0234199
0.0327643
0.0241679
-0.318564
-0.0203858
0.0302225
0.0413248
0.00567587
-0.0706497
0.0348362
0.0348617
0.00835782
0.0290024
0.13966
-0.423788
0.00508161
0.0126451
0.131558
0.0159059
0.0185404
0.0104743
-0.0624484
0.0593604
0.0179624
0.0126971
0.0250732
0.0256307
0.0181798
0.00898481
-0.00386276
0.011165
0.00425737
-0.00444203
0.00428782
0.0114352
-0.00987816
-0.0180355
-0.312906
-0.000893807
-0.0268292
-0.113228
-0.00554186
0.023863
0.0264103
-0.00174629
0.0259414
0.142914
-0.0182135
0.0121113
0.0164398
0.0812289
0.0458197
0.00938784
-0.0130225
0.00997219
-0.00349365
0.0365258
0.0325175
-0.380391
0.289969
0.0171436
-0.0877978
0.0210327
0.0168469
0.0136037
-0.278647
0.274748
0.0170335
0.0659234
0.00302015
0.0852563
-0.17938
0.0109546
-0.019115
-0.0213611
-0.0358221
0.0113575
0.0270147
0.0188978
0.0168966
0.0329313
-0.0179838
0.0161883
0.0574148
0.0724653
-0.0331697
-0.0303372
0.00524456
0.0134104
0.0329819
0.026233
-0.50009
-0.0671966
0.0699367
-0.016273
-0.190879
-0.126144
-0.0300884
0.0217551
-0.310403
0.12707
0.155058
0.026786
0.0226605
0.000540656
0.00649492
-0.218444
0.0265963
-0.00303411
0.0321695
0.0105238
-0.00777891
0.0306583
0.0223114
-0.00510926
-0.00926351
-0.283451
0.0212908
0.0426533
0.0859592
0.0603735
0.0224117
0.244969
-0.0249897
-0.174419
0.55218
0.12034
0.00866237
0.0316092
-0.0708647
-0.0295814
0.0475813
0.0324636
-0.0148229
0.0165891
-0.03494
-0.221202
0.0614469
0.12051
-0.0200371
-0.270842
-0.311463
-0.406322
-0.314286
0.0503768
0.0292046
0.0157157
-0.0372246
-0.0314179
0.00857652
0.0210626
-0.00141594
-0.492876
0.0805056
0.0228264
0.0438239
-0.260905
0.0580197
-0.0328396
0.111637
-0.336281
0.0850592
0.0104395
0.0822592
0.0636904
-0.291045
0.0382617
-0.287747
0.0193016
0.0527327
0.046179
0.021319
0.0382952
-0.148788
-0.324969
0.0113316
0.00435446
-0.216561
0.0104395
0.0134433
0.0275463
-0.0157642
0.0170713
-0.262458
0.0332408
0.0338554
0.0232816
-0.408295
-0.155732
0.0754149
-0.0104341
-0.0793507
-0.0391981
0.424898
-0.162127
0.0259962
-0.0731789
0.0319178
0.0485407
0.027011
0.0466313
-0.00244319
0.095025
-0.0487692
-0.00691433
-0.00504982
-0.0068531
-0.0107475
-0.0090565
0.0348374
0.114411
-0.078151
0.0269588
0.00638545
0.0364123
-0.0165289
0.035948
-0.37082
-0.135198
0.00622455
0.0239992
-0.117385
-0.377083
-0.0127941
-0.0858797
0.031275
0.0272063
-0.171652
-0.2498
0.259519
-0.296795
-0.4438
-0.194106
-0.0771465
0.00455948
-0.413062
0.355926
-0.0744159
-0.308244
0.0170615
0.0962155
0.567925
0.00544658
0.00600121
0.0640879
-0.119741
0.000233862
-0.231667
-0.241764
-0.00209064
0.06275
-0.0438609
-0.257835
-0.300997
-0.171256
0.020447
0.033353
0.106358
-0.0106178
-0.0748105
0.0935204
-0.0897598
0.0274953
-0.197752
-0.286664
-0.0355807
-0.0197624
0.0260117
0.0252583
0.0780691
-0.0276703
0.00982585
-0.44803
0.454887
-0.30989
-0.292451
-0.0167674
-0.000555496
-0.281782
-0.263605
0.118672
-0.320653
-0.0952962
0.868628
0.0261126
-0.336066
0.0180919
0.0107109
0.0484294
-0.452705
-0.272395
-0.299157
-0.0111425
-0.188289
-0.34179
0.00887357
-0.00250533
0.121385
-0.300565
0.046303
-0.487526
-0.30492
-0.366661
0.0186742
0.0331717
0.0278384
0.11988
0.125303
-0.00263857
-0.287764
0.305224
-0.0282521
-0.0101852
-0.421077
-0.483305
-0.316456
0.061007
-0.331768
-0.0340959
0.0116524
-0.0394704
-0.222301
-0.228381
0.0275024
-0.304492
-0.247816
0.0149279
0.00720456
-0.177717
0.0107011
0.0518231
-0.367311
-0.334375
-0.107977
0.115221
0.02991
-0.318207
-0.268907
-0.414074
-0.0406052
0.0587766
0.115655
0.00264837
-0.428778
-0.27902
0.11837
0.0229288
-0.0387492
0.041248
0.0307127
-0.313932
0.0504245
-0.268373
0.0365161
-0.175332
0.0339594
0.00370045
-0.345834
-0.43243
-0.00065533
-0.465815
-0.446165
0.0430306
-0.0357579
-0.262932
-0.0268067
-0.296884
0.0359443
0.0985619
0.0597897
-0.14142
-0.0375716
0.0546077
-0.41563
0.0117823
-0.309889
0.0230073
-0.317867
-0.481131
0.0975826
0.292576
0.450313
0.0370145
0.00280709
0.00336653
-0.322543
0.657271
0.0300548
-0.167827
0.0194621
-0.0780351
0.0805425
0.503666
-0.352206
-0.0235873
-0.0196026
0.0235377
0.0170975
-0.429547
-0.276968
-0.34659
-0.261472
-0.276402
0.0126182
-0.359047
0.00980558
-0.235168
-0.274019
0.541023
0.611754
-0.257007
0.109844
-0.270594
-0.016363
0.11234
0.436918
0.0612685
-0.307076
0.120704
-0.475919
-0.000751036
-0.171053
0.00599341
-0.298948
-0.241947
0.00436587
0.00425571
-0.305373
0.44196
0.691475
-0.331392
-0.276706
-0.319187
-0.0330357
-0.289101
-0.262729
-0.123645
-0.306578
0.778
-0.321886
0.742368
-0.402996
0.329751
-0.302575
0.0222422
0.195474
-0.473277
0.211856
-0.226243
-0.286198
-0.313589
0.886338
-0.275651
0.209302
0.146767
0.643957
0.122476
-0.249911
-0.25266
-0.179912
0.0202518
0.115792
0.513374
0.0182143
0.00117902
-0.266264
0.152118
-0.122977
-0.402779
0.0467849
-0.176999
-0.166485
-0.119766
-0.352644
0.0205575
0.103468
0.0193839
0.0938441
0.110111
-0.311963
-0.320278
0.0583086
0.0326794
-0.430647
-0.481349
0.206485
0.211823
0.091127
0.692302
-0.0821713
-0.133776
-0.350158
-0.281368
-0.0614556
0.107049
0.779479
-0.419932
0.370632
0.0125653
-0.401127
0.171164
-0.0429876
0.382722
-0.119381
0.0321786
-0.311388
-0.0858346
0.186591
0.816042
0.33741
0.78015
-0.379849
-0.279583
-0.404663
0.1921
0.284822
0.0789549
0.404173
0.125287
0.506324
0.299179
0.0722629
-0.189668
0.0223345
-0.227059
0.894794
0.417139
0.675939
0.522659
-0.232576
-0.348899
-0.267911
-0.296233
0.0648774
-0.404179
0.0955773
0.615926
-0.362091
0.00950646
-0.297912
0.203912
-0.314269
-0.344855
-0.168264
-0.263361
-0.286696
-0.343816
-0.32107
-0.129873
-0.403359
-0.138595
-0.14941
0.166301
0.651717
-0.186138
-0.300116
0.846702
-0.300012
0.284609
-0.207227
0.379224
0.0878482
-0.373683
-0.368627
0.471178
-0.27773
-0.291352
0.185333
-0.243262
-0.00355398
-0.276982
-0.0871484
0.0496025
0.572272
0.788622
-0.272688
0.228011
-0.286591
0.83398
0.00651232
-0.2847
-0.00315657
0.76722
0.22499
-0.292112
-0.263398
0.454719
-0.182946
0.05974
0.378062
0.270613
0.29847
-0.220566
-0.247264
0.698252
)
;

boundaryField
{
    FrontBack
    {
        type            empty;
    }
    Top
    {
        type            zeroGradient;
    }
    In
    {
        type            zeroGradient;
    }
    Bottom
    {
        type            zeroGradient;
    }
    Out
    {
        type            fixedValue;
        value           uniform 0;
    }
    circle
    {
        type            zeroGradient;
    }
}


// ************************************************************************* //
