/*--------------------------------*- C++ -*----------------------------------*\
| =========                 |                                                 |
| \\      /  F ield         | OpenFOAM: The Open Source CFD Toolbox           |
|  \\    /   O peration     | Version:  2412                                  |
|   \\  /    A nd           | Website:  www.openfoam.com                      |
|    \\/     M anipulation  |                                                 |
\*---------------------------------------------------------------------------*/
FoamFile
{
    version     2.0;
    format      ascii;
    arch        "LSB;label=32;scalar=64";
    class       volScalarField;
    location    "17";
    object      p;
}
// * * * * * * * * * * * * * * * * * * * * * * * * * * * * * * * * * * * * * //

dimensions      [0 2 -2 0 0 0 0];

internalField   nonuniform List<scalar> 
808
(
0.111505
0.00443392
0.0207412
0.11185
-0.201576
0.00686472
-0.00401386
0.0169257
-0.109248
-0.0277946
0.0244372
-0.122705
0.0112552
0.000952975
-0.295892
0.00986545
-0.308948
0.00651227
0.0230084
-0.00179062
0.0174352
0.375632
0.059855
-0.00957974
0.453425
-0.193529
-0.0515925
-0.000696097
0.00631341
0.00714856
0.0030625
0.0101763
0.014215
0.00372959
-0.0842948
0.627676
0.00209227
0.0141553
0.0107527
0.00796288
-0.0559517
-0.0552243
0.0228225
0.0113004
-0.205615
0.0768684
0.0105133
0.0190486
0.00270456
-0.147102
9.44772e-05
0.0116226
0.031579
0.00253339
-0.09767
-0.000584655
0.00434922
0.0258414
-0.0206457
-0.00582584
-0.27507
0.00847088
0.0236599
-0.171846
0.015471
0.0333714
-0.232382
0.0140288
0.0154599
-0.250681
0.0130461
-0.279113
0.0122034
0.00969959
0.192829
0.00183291
-0.0212309
-0.0782966
-0.00239467
0.308243
-0.138717
0.00859117
0.0262557
0.274483
0.00562505
-0.0418851
-0.320843
-0.117238
0.0165239
-0.215729
0.0314878
-0.0959994
0.248438
0.148936
0.0280363
-0.221006
0.0115904
-0.136385
-0.104867
-0.20111
0.00213166
-0.0118016
0.0305191
-0.0371155
-0.117854
0.0461313
-0.226661
0.0174098
-0.00173632
0.0380689
-0.0929465
0.328349
0.00654292
0.0293582
0.0117887
0.452317
0.00160593
-0.235092
0.00848541
0.0485458
-0.248439
0.0233255
0.00285099
0.0500812
0.10226
-0.061204
0.103266
0.0294259
0.0279793
0.0557991
-0.233008
0.0134698
-0.0560925
0.116617
0.0115803
-0.00205643
0.0433338
-0.00148392
0.0100533
-0.00240325
-0.294285
0.0413259
0.0228417
0.0102936
-0.0410397
0.0759182
0.0891487
0.152523
-0.0689056
0.0172065
0.00623964
0.339879
0.0203828
0.534145
-0.281034
-0.113673
0.00597108
-0.233076
0.0302623
-0.135641
-0.272179
-0.290085
-0.247904
0.00801419
0.0488075
0.0120372
0.0113299
-0.250205
0.00375446
0.0192524
0.0298523
0.150294
0.0742868
0.129537
0.00697424
0.0641105
0.0585986
-0.137565
0.014308
-0.303371
0.0195548
-0.15285
0.00527898
0.263886
-0.311558
0.105896
0.00828559
-0.152491
0.0191635
-0.1031
-0.278018
-0.0796253
0.00857401
0.0775019
0.00554947
-0.284113
0.00757561
0.0196255
0.00158756
0.0692755
0.0582075
0.0160182
0.0136019
-0.276669
0.373404
-0.279601
-0.271389
0.00363267
0.0176452
0.00723441
0.00262214
-0.350219
-0.229944
0.00635859
0.00676207
0.0109381
-0.284513
-0.0455705
0.00475164
0.0281758
0.0181946
-0.09565
0.0161851
0.0162379
0.00092743
0.0164399
0.114058
-0.242858
0.0488537
0.00418676
0.106982
0.00590614
0.00803615
0.00249962
-0.117591
0.0155884
0.00149155
-0.00117197
0.000722421
0.00471137
0.00227432
0.00069467
0.00443656
-0.00209298
-0.00267218
0.00161263
-0.000728657
7.15954e-05
0.00353978
0.054851
-0.27696
-0.000559109
0.00259062
-0.142298
0.000360307
-0.00487147
0.0187313
0.00209729
0.00983283
0.117663
0.0452124
0.00403739
0.00577512
0.0452507
0.0155397
0.0104908
0.0228443
0.0381206
0.0206192
0.0255354
0.0206771
-0.34709
0.270883
0.00794066
-0.0542128
0.010998
0.00585548
0.00666265
-0.203361
0.282812
0.0189629
0.0154448
0.0231414
0.0785829
-0.163265
0.0137412
0.0525227
0.0890816
0.0272321
0.0386001
0.0149876
0.0242824
0.0196256
0.0213889
0.0405156
0.0173786
0.0152733
0.0467624
0.0441458
0.0379036
0.0156439
0.0142319
0.0251736
0.00796424
-0.455638
-0.114269
0.01702
0.0294446
-0.159402
-0.292816
0.033888
0.0136394
-0.273983
0.12435
0.156016
0.00661335
0.00705807
0.0500047
-0.000885184
-0.191283
0.0239485
-0.00323489
0.0150145
0.0150928
0.0147612
0.0194215
0.0511512
-0.0144998
0.0218844
-0.270241
-0.0691544
0.0182827
-0.0155736
0.040737
-0.00224475
0.225637
0.026818
-0.149545
0.548759
0.0356617
0.00102375
0.0165199
-0.0726078
-0.0607237
0.04229
0.0212404
-0.0150944
0.0268109
-0.0634646
-0.259056
0.0561199
0.0957418
-0.074133
-0.267886
-0.273607
-0.24153
-0.270368
0.052527
0.0164296
0.00702863
-0.0162138
-0.0441601
-0.00103827
0.0216072
-0.000326007
-0.450285
0.0385715
0.0251897
0.0143652
-0.276747
0.0258388
0.0154734
0.1073
-0.288951
0.0348747
-0.0575659
0.0433476
0.0074057
-0.268767
0.0145621
-0.306655
-0.00657123
0.0250274
0.0153248
-0.0010796
0.0111615
-0.0795109
-0.293846
-0.00580234
-0.00106779
0.000811934
-7.61876e-05
-0.0179318
0.0181897
-0.0217231
-0.0215638
-0.103725
0.0387714
0.000880784
0.00646626
-0.257789
-0.149574
0.0529887
0.0117442
-0.147723
-0.0402837
0.428656
-0.28039
0.00362718
-0.146603
0.00479558
0.0319662
0.0147017
0.00182688
-0.0131354
-0.0245232
-0.0750225
-0.0139413
-0.00731219
-0.0106122
-0.0114588
-0.0107744
0.0140698
0.111563
0.0398753
0.00307403
0.00534837
0.0108882
-0.0873898
0.0131123
-0.333448
0.0197207
0.0462578
0.00338995
-0.235529
-0.272898
-0.0273009
-0.0648391
-0.0803126
0.0172886
-0.180165
-0.201941
0.222168
-0.269922
-0.402446
-0.293519
-0.115277
-0.115635
-0.240034
0.352437
-0.0452448
-0.273826
-0.00313256
0.0185942
0.580825
0.00277208
0.0132105
0.037762
-0.0243042
-0.0232092
-0.310761
-0.283808
0.0470698
0.0581453
0.0723937
-0.227866
-0.256762
-0.236994
0.00340973
0.00849951
0.0818666
-0.027623
-0.0355709
0.0680801
0.0130946
0.0150606
-0.175498
-0.300378
-0.00279197
-0.11631
0.00894891
-0.00377617
0.0738453
-0.0632902
0.00931204
-0.409025
0.454761
-0.230701
-0.270464
-0.0455791
0.00347233
-0.275183
-0.269725
0.117139
-0.287296
-0.224087
0.865384
0.00272544
-0.307698
-0.00734213
-0.152627
-0.0221638
-0.406862
-0.284732
-0.260609
0.00801322
-0.250172
-0.310886
-0.0252599
-0.0361816
0.0962941
-0.260903
0.0197437
-0.445676
-0.32125
-0.381154
-0.222357
-0.000855249
-0.00547067
0.0955618
0.126219
-0.0576597
-0.265568
0.30905
0.0854366
0.0145597
-0.38406
-0.442305
-0.281118
-0.00710102
-0.300344
0.0913346
0.0184029
0.00235564
-0.221456
-0.19534
0.00465496
-0.269688
-0.294152
-0.0015361
-0.0184005
-0.193555
-0.0227534
0.0251827
-0.33128
-0.278038
-0.0947133
0.0926111
0.0164608
-0.283106
-0.289388
-0.219567
-0.288034
0.028899
0.0907165
0.000696066
-0.230382
-0.296344
0.0940115
0.0189504
-0.236467
0.0222153
0.0297846
-0.328459
0.0157841
-0.227232
0.0312568
-0.334865
0.00605955
-0.00555295
-0.359974
-0.449955
-0.000747311
-0.421796
-0.405845
0.0250108
-0.0750108
-0.275636
0.00495731
-0.266403
0.0208901
0.0731785
0.0617135
-0.331649
0.0691776
0.0193757
-0.448953
0.00966254
-0.282102
0.0106842
-0.274097
-0.503953
0.106146
0.269714
0.444671
0.00383702
-0.00564566
-0.00188412
-0.291946
0.646246
0.00684452
-0.220388
0.018518
-0.0403388
0.0834155
0.484079
-0.364764
-0.0563256
-0.0522448
0.0260073
0.00648974
-0.446164
-0.264616
-0.265597
-0.313632
-0.239443
-0.00965477
-0.316231
0.0539225
-0.268243
-0.311677
0.508247
0.587508
-0.315772
0.126555
-0.274898
-0.0300119
-0.161887
0.403008
-0.117596
-0.275751
-0.0970551
-0.503831
-0.0353035
-0.198098
-0.0231379
-0.309254
-0.277289
-0.00214437
-0.00226649
-0.277648
0.45947
0.675947
-0.265598
-0.298062
-0.27725
-0.0668515
-0.301145
-0.2818
-0.19517
-0.276046
0.752338
-0.335903
0.751009
-0.364035
0.335266
-0.265805
-0.00908693
0.172545
-0.494581
0.241359
-0.281567
-0.309439
-0.336614
0.871451
-0.271941
0.213997
0.155857
0.650254
0.127319
-0.345174
-0.286099
-0.174609
0.00220923
0.0837098
0.533311
0.00484406
-0.0333457
-0.283474
0.114984
-0.099977
-0.261482
0.0182381
-0.34684
-0.127932
-0.157584
-0.318624
-0.00734146
0.104251
-0.0176186
0.0681634
0.113144
-0.32924
-0.355604
-0.0667436
0.000654942
-0.461418
-0.507408
0.173447
0.19089
0.0870103
0.66783
-0.058946
-0.309654
-0.380949
-0.296227
-0.0407746
0.0801779
0.763561
-0.446416
0.387681
-0.0242434
-0.42116
0.149474
-0.077535
0.394529
-0.163249
0.00369287
-0.286781
-0.0538481
0.210985
0.818889
0.338866
0.75956
-0.27714
-0.296917
-0.367356
0.164766
0.266863
0.0537377
0.380133
0.155717
0.500893
0.274238
-0.0677411
-0.160418
0.0359785
-0.321196
0.885479
0.415647
0.647576
0.514519
-0.266459
-0.27372
-0.279369
-0.270058
0.0390835
-0.363898
0.120141
0.596568
-0.287117
0.0053425
-0.268601
0.18259
-0.32327
-0.362899
-0.156308
-0.286258
-0.307136
-0.278289
-0.295075
-0.117843
-0.366209
-0.107073
-0.269923
0.14335
0.66414
-0.221165
-0.27274
0.826718
-0.273649
0.297093
-0.234873
0.402591
0.0897111
-0.250312
-0.392422
0.441582
-0.242704
-0.319652
0.202374
-0.274724
-0.0353175
-0.29329
-0.119792
0.0190239
0.57677
0.783252
-0.289677
0.232329
-0.295239
0.823597
-0.0234788
-0.310963
-0.0393461
0.768795
0.20459
-0.318372
-0.280086
0.462911
-0.212479
0.034226
0.349392
0.252194
0.301925
-0.252049
-0.327449
0.691737
)
;

boundaryField
{
    FrontBack
    {
        type            empty;
    }
    Top
    {
        type            zeroGradient;
    }
    In
    {
        type            zeroGradient;
    }
    Bottom
    {
        type            zeroGradient;
    }
    Out
    {
        type            fixedValue;
        value           uniform 0;
    }
    circle
    {
        type            zeroGradient;
    }
}


// ************************************************************************* //
