/*--------------------------------*- C++ -*----------------------------------*\
| =========                 |                                                 |
| \\      /  F ield         | OpenFOAM: The Open Source CFD Toolbox           |
|  \\    /   O peration     | Version:  2412                                  |
|   \\  /    A nd           | Website:  www.openfoam.com                      |
|    \\/     M anipulation  |                                                 |
\*---------------------------------------------------------------------------*/
FoamFile
{
    version     2.0;
    format      ascii;
    arch        "LSB;label=32;scalar=64";
    class       surfaceScalarField;
    location    "17";
    object      phi;
}
// * * * * * * * * * * * * * * * * * * * * * * * * * * * * * * * * * * * * * //

dimensions      [0 3 -1 0 0 0 0];

oriented        oriented;

internalField   nonuniform List<scalar> 
1171
(
-0.945735
0.945735
0.777829
-1.0867
0.308874
-0.291799
-0.780351
1.07215
0.0542647
-0.0642401
-0.276041
0.340281
-0.777829
0.0888513
0.688978
0.934128
-0.208248
-0.72588
0.828102
-1.02942
0.20132
-0.356185
-0.0343988
0.390584
0.00114497
0.603381
-0.604526
-0.527386
0.974817
-0.447432
-0.420425
1.00313
-0.175031
0.250614
0.0917392
-0.342353
0.981175
0.0219585
0.294722
-0.0441078
1.01196
-0.0307816
0.679911
-0.971709
-0.789826
0.61459
0.175237
0.332557
-0.859943
0.560545
-0.91531
0.354764
-1.08043
0.670587
0.409841
-0.644195
0.64534
0.0339855
-0.253357
0.219372
0.0259554
-0.639818
0.613862
0.468135
-0.502533
-0.845846
0.880116
-0.03427
1.00307
0.00888457
0.907993
-1.06203
0.154034
1.01917
-0.0160979
-0.699184
-0.0906419
1.23692
-0.84642
-0.390504
0.173324
-0.0700139
-0.416461
0.486475
-0.273756
0.183702
0.0900537
-0.604754
-0.48195
0.96548
-0.0574871
-0.0233168
0.871708
-0.848391
0.50865
0.728275
0.533367
0.0270458
0.441089
-0.788524
-0.105912
0.894436
0.596481
0.229016
-0.825496
0.0279169
0.616271
-0.644188
-0.509924
-0.570504
-0.382973
-0.679054
0.0293641
0.243676
-0.27304
-0.945937
-0.036258
0.982195
0.374417
0.0161668
0.854172
0.0799553
-0.605745
-0.0384505
0.0374904
-0.826015
0.131032
0.914548
-1.04558
-0.406937
0.0273629
0.379575
-0.715887
-0.230049
-0.714815
0.845847
0.637303
0.337515
-0.57748
0.99927
-0.823596
-0.175674
-0.0287307
-0.0773632
0.106094
-0.459237
-0.0432964
-0.317911
0.955213
-0.0168038
0.440278
-0.423474
-0.493025
1.08951
0.713738
-0.81965
0.387005
-0.0745885
-0.312417
0.752547
-0.752547
-0.940456
0.0388746
-0.314916
-0.691515
0.668198
-0.0314484
-0.142462
0.173911
0.882895
-0.0111871
1.04003
-0.81101
0.223563
-0.319406
0.0958429
0.990849
-0.136677
-0.679037
-0.0517715
0.730808
0.149772
-0.232091
0.0823193
0.803942
-1.01219
-0.44347
0.310908
0.132562
0.670311
-0.644355
0.862427
-0.389506
-0.472921
0.479454
-0.694287
0.0366643
0.657622
0.165353
0.67317
0.0432807
-0.71645
0.133339
-0.0944641
-0.513583
0.106646
0.0367491
-0.908995
0.872246
-0.548079
-0.762051
0.0628664
0.499914
-0.0588248
0.274768
-0.832732
0.557964
0.424472
0.575528
0.600173
-0.562683
-0.370201
-0.0283591
0.39856
0.533648
0.218899
-0.668427
0.696344
0.0834523
0.892794
0.00515348
-0.68419
-0.765589
0.802338
0.621398
0.11907
0.351866
-0.470937
-0.155428
0.529503
0.0867682
0.855891
-0.813537
-0.0423539
0.65712
0.342151
-0.429873
0.715946
-0.596876
0.409485
0.151061
-0.0587677
-0.645379
-0.208816
0.854195
-0.11906
-0.633488
-0.612753
0.363752
0.249001
0.663381
-0.658228
0.308833
1.0282
0.0118252
-0.765589
-0.116223
0.0874925
0.713738
0.786541
-0.786541
0.846129
-0.832475
-0.0136533
-0.454418
0.87889
-0.193806
-0.319777
0.762956
-0.668443
-0.0945132
-0.875048
0.22967
0.106231
-0.711976
0.81965
-0.975078
-0.176313
0.165504
0.0108084
0.113641
-0.984241
0.870601
0.546852
-0.0134847
-0.289319
0.595414
-0.306095
-0.64591
0.75955
-0.160215
0.739989
-0.801684
0.0616956
1.11587
-0.646744
-0.469129
0.727773
-0.0696004
-0.0106195
0.0101558
0.000463746
-0.800501
-0.880084
0.0997332
-0.691515
0.576601
-0.549238
0.0564533
0.677198
-0.733652
0.779242
0.166493
0.491356
0.508644
-0.0585933
-0.664606
0.7232
0.866954
-0.0110629
-0.727773
0.802338
0.179645
-0.433002
-0.0209563
0.00258384
0.0183725
0.67711
-0.436295
-0.240815
0.688978
-0.0303254
-0.140096
0.561538
0.115572
-0.0114508
0.00162161
0.00982917
0.00384835
-0.0144679
0.127969
-0.202558
-0.946756
0.0439594
-0.144418
-0.0483433
0.133804
0.771595
0.742796
-0.167268
0.456192
-0.399739
-0.162631
0.386194
0.634084
0.0548936
0.228484
-1.06096
-0.975078
0.315593
0.668198
-0.15903
0.0165672
-0.815554
0.986585
-0.171031
0.484493
-0.104918
0.802646
0.305713
0.277549
0.0171733
-0.681036
0.681036
0.22535
0.669086
-0.0108225
0.451101
0.475653
0.0188903
-0.0398467
0.553595
-0.0067431
-0.64591
0.572018
0.190938
0.00379516
0.00636064
-0.634084
0.158822
0.827763
0.0129793
-0.718856
0.705876
0.76029
-0.822443
0.0621531
-0.779242
-0.0328112
0.0453815
-0.0125703
0.0846903
-0.121925
-0.105467
0.227392
-0.00683481
-0.00461597
0.740407
-0.727428
0.912271
0.159878
-0.404274
-0.53382
0.938093
-0.00125034
0.00125034
0.137145
0.437283
0.646636
-1.08392
-0.195278
-0.549654
0.744932
-0.0191013
0.193012
0.383678
-0.233905
1.08686
-0.649582
0.784183
0.998623
-0.351987
0.189871
0.75955
0.584519
0.234891
0.645225
-0.633488
0.318964
-0.00898879
-0.0193335
0.0283223
0.877463
0.036524
-0.913987
-0.553737
0.537639
0.545582
-0.553737
-0.584519
0.537639
0.00188361
1.01333
-0.10106
-0.533648
0.456422
0.0772262
0.522341
0.627099
-1.14944
0.487958
0.598906
0.652297
0.482061
-1.13436
0.465542
0.533081
0.456422
-0.500087
-0.517615
-0.633804
-0.517205
-0.124486
-0.00470848
0.00470848
0.598257
0.566565
-1.08377
0.729345
-0.377479
-1.02652
0.379772
-0.688116
0.458066
-0.0114169
-0.933791
0.945208
0.453477
-0.0291483
0.906612
-1.11909
-0.977284
0.0766445
0.90064
0.334328
-0.105187
-0.229141
0.749917
-0.807404
1.02188
-0.96901
-0.0528726
-0.0506381
-0.762899
-0.148569
0.84021
-0.691641
-1.02299
0.972351
-0.596053
0.630708
-0.0346551
-0.840348
0.109778
0.73057
0.00339676
-0.0046471
0.425829
0.0972053
-0.969462
0.872257
-0.771134
0.71254
1.01639
0.128278
-1.14467
0.0391092
0.00632905
0.392231
-0.359358
0.0399528
0.926638
-0.938055
-0.68047
-0.849191
0.0862922
-0.135104
-0.980992
0.0119815
0.534357
-0.0781651
0.0811982
0.253129
-0.611484
0.721261
0.472921
-0.962939
-0.894711
0.118621
-0.0499716
0.646067
-0.596095
-0.035784
-0.730441
0.579043
0.181247
-0.0345835
0.941195
1.049
0.960578
-0.948596
0.0455929
-0.0455929
-0.0828173
-0.234418
0.129232
0.340022
-0.0244294
0.247223
0.905411
0.00177605
-0.00861086
0.658496
0.341504
0.79707
-0.604754
-0.756117
-0.559571
-0.503369
0.503369
-0.207162
-0.107754
0.66716
-0.952607
0.285447
-0.486375
-0.52306
0.346652
-1.02571
-0.969501
0.916629
-0.657171
0.743463
0.670281
0.189998
-0.860279
-0.594227
-0.176248
0.846854
-0.670606
0.0640903
0.000549394
0.00280101
-0.0033504
-0.0125555
-0.221863
1.01381
0.689798
-0.378552
-0.311246
0.460657
0.746966
-0.521616
0.0117589
-0.285515
0.123085
0.751808
-0.874893
-0.355425
-0.0747898
0.140305
-1.00172
0.0877278
-0.762609
0.0802734
0.757361
-0.837634
-0.873243
0.110634
0.705345
-0.780134
0.235403
-0.357328
-0.506619
-0.0876073
0.368966
0.742039
-0.0260933
0.00139298
-0.00139298
-0.00308687
0.0152149
-0.0242037
-0.015239
0.0170151
-0.584784
0.333241
0.775103
-0.837316
0.0622127
-0.713211
0.793484
0.783373
-0.0780284
-0.704077
-0.169166
-1.12018
0.0206907
0.0249022
-0.461699
-0.852646
-0.854956
0.464452
-0.182911
0.185597
-0.00268586
-0.48908
0.0273807
0.514967
0.712761
-0.0387602
-0.0095831
1.08932
0.508623
0.21295
-0.721574
-0.416437
-0.0726427
-0.00574542
0.00629481
0.699527
-0.908343
0.00603481
-0.00603481
-0.723082
0.720398
0.00268411
-0.335239
-0.105039
-0.703316
0.0989652
0.624235
-0.0519125
-0.879564
-0.162965
0.134955
0.0280096
0.806378
-0.744165
0.345965
0.263828
-0.609793
-0.153119
-0.71666
-0.120974
-0.214459
-0.0639994
0.471249
-0.514545
0.187945
0.726706
-0.914652
0.479454
-0.124355
-0.0585554
0.0944249
-0.158424
0.59705
-0.0949316
-0.502118
-0.283934
0.30461
-0.0206766
0.60183
0.127515
0.0667127
-0.310861
0.168767
0.142094
-0.168999
0.0527754
-0.288512
0.0745737
-0.015454
-0.0591196
0.87191
-0.297622
-0.0376166
0.554698
0.264249
-0.642801
0.417809
-0.417809
-0.22143
-0.417374
-0.231133
-0.417374
-0.68022
-0.850148
0.181706
-0.168391
0.727549
0.0478124
0.153896
0.588144
0.108985
0.117018
0.010415
-0.127433
-0.0334356
0.715724
-1.02322
0.489397
-0.00960357
0.0656064
-0.0560028
-0.748634
-0.176749
-0.589684
0.802634
-0.527038
0.00939974
-0.167824
-0.336846
-0.0808223
0.0808223
0.0438735
0.00150801
0.137708
0.238372
-0.755726
0.166042
-0.0289371
0.471937
0.528063
0.779253
0.0230213
0.00815896
-0.0311802
-0.296122
-0.583443
-0.542336
0.113187
-0.118169
0.00498256
-0.125876
-0.414709
-0.066042
0.690277
-0.585111
-0.163523
-0.0679635
0.0226855
0.162554
-0.372358
-0.196747
-0.181166
-0.0213922
-0.479081
0.432506
0.0465742
-0.0535648
0.294042
-0.864546
-0.541214
0.656841
-0.86051
0.707392
0.45743
-0.0308895
0.056412
-0.0255225
0.0493194
-0.635195
-0.00539105
0.640587
-0.894466
0.644218
-0.727035
-0.106588
0.00693813
-0.00693813
-0.299102
0.433344
-0.0411121
0.008665
0.0143563
0.595305
0.594521
-0.636875
0.0112488
0.00427418
-0.00288119
0.0042319
-0.0042319
-0.508582
0.636096
0.0140344
-0.0140344
-0.778071
-0.00836042
0.0117572
-0.526559
0.692601
0.6108
-0.608116
0.0685309
-0.0685309
-0.014969
-0.0248776
0.0118464
-1.03793
0.568804
-0.511267
-0.0046471
0.603047
0.00915235
-0.6122
-0.709992
0.12488
-0.316643
-0.0137227
0.330366
-0.0224813
-0.0162789
-0.60679
-0.0284057
0.0249022
0.00576803
0.000266787
-0.00316632
0.00316632
-0.34791
0.28879
-0.456585
0.134238
0.662832
-0.13343
0.00140802
-0.00140802
0.508601
-0.119229
0.00818847
0.017964
-0.000415199
0.571098
-0.690327
-0.70616
0.668544
-0.0779239
0.325
0.767384
-0.00308687
-0.0918206
0.0981813
-0.641629
0.555134
-0.302928
-0.106944
-0.0277469
-0.0256911
-0.00708008
0.46891
-0.0855112
-0.416607
0.696204
0.000476576
0.00574443
-0.00574443
-0.165467
-0.109538
-0.572056
0.619868
-0.136357
0.509902
-0.206409
0.886319
0.826358
0.00576803
-0.78128
0.686262
0.0368997
-0.0387091
0.00180942
0.614979
0.0859957
-0.0120015
0.0662515
-0.05425
0.00883514
-0.00883514
-0.74449
0.0229381
-0.0432443
0.0612083
-0.0864709
0.0864709
0.00427418
-0.00167885
0.736734
0.091029
-0.318248
-0.0964604
-0.521038
-0.0310638
-0.066747
0.066747
-0.0461492
0.0806175
-0.0806175
0.0265069
-0.0265069
-0.355953
-0.0739202
0.241238
0.0696692
0.0386132
-0.731221
-0.0602729
0.16103
0.0186142
-0.243678
0.0805235
-0.0805235
-0.467265
-0.0472807
0.231069
-0.0116976
0.00260171
-0.655254
0.653371
0.00352187
-0.0496711
0.0429581
-0.0678358
-0.0120866
-0.155894
0.16798
-0.150383
-0.206944
-0.081409
0.081409
0.0550863
-0.0550863
-0.029297
-0.0940876
0.123385
-0.0214223
-0.188091
-0.00789844
0.00501725
-0.244319
0.533109
-0.025736
0.448282
0.00706227
0.00276689
-0.0509862
0.0509862
-0.732427
0.318226
-0.128355
-0.208799
-0.0232929
-0.0167953
0.019397
0.197598
0.029794
-0.0012283
0.0008131
0.0835213
0.0296656
0.0552452
0.105785
-0.0113217
0.00173856
-0.000290389
0.00569342
0.00585869
0.00515087
-0.0110096
-0.00147025
0.00753885
0.0281057
-0.0281057
0.0494562
-0.0419906
0.0419906
-0.190591
0.00846032
0.0283868
-0.0754046
0.0176717
0.0766387
-0.0766387
0.244172
-0.237284
0.0869003
-0.0671466
-0.170137
-0.0161995
0.0161995
0.406947
0.250675
-0.518584
-0.0806302
-0.0375392
0.541185
0.0215358
-0.0620267
-0.455403
0.0859197
-0.15347
0.170217
-0.0167474
-0.0469732
0.0469732
0.853303
-0.592121
-0.00892185
0.0074516
-0.00564855
-0.284503
-9.3975e-05
0.0050619
-0.0437057
-0.62856
0.568319
-0.671044
0.014662
0.194519
0.0157608
0.0244794
-0.159118
-0.335325
0.25992
-0.0562776
0.0269806
0.17135
0.133261
0.21616
0.264728
-0.248967
0.00612547
-0.113153
-0.222521
0.0681838
-0.0129386
0.160852
-0.136373
-0.0683598
0.151881
-0.407216
0.121397
-0.103725
0.0583278
-0.474935
0.175279
0.176806
-0.245166
0.00631055
-0.176664
0.17657
0.00388481
0.147996
-0.0279562
0.0501015
0.4585
0.0119062
0.0187368
-0.00561462
0.0355172
-0.239269
-0.202763
0.591089
0.169599
0.0614697
0.0782373
-0.0634859
0.0519005
-0.0500911
-0.0302339
0.166648
-0.151986
0.0116567
-0.0039046
-0.104495
-0.0286681
0.0133953
0.251869
0.00202697
-0.0159353
-0.311863
-0.00781856
0.216759
0.139981
0.178246
0.0571272
0.0976486
0.0546585
0.540646
-0.0112999
0.103072
0.0431725
0.0654954
-0.108668
-0.267909
-0.197108
0.0269709
-0.223066
0.284892
)
;

boundaryField
{
    FrontBack
    {
        type            empty;
    }
    Top
    {
        type            calculated;
        value           uniform 0;
    }
    In
    {
        type            calculated;
        value           uniform -1;
    }
    Bottom
    {
        type            calculated;
        value           uniform 0;
    }
    Out
    {
        type            calculated;
        value           nonuniform List<scalar> 10(1.14026 1.02243 1.15142 1.06445 1.10916 1.05029 1.16482 1.00943 0.639238 0.648507);
    }
    circle
    {
        type            calculated;
        value           uniform 0;
    }
}


// ************************************************************************* //
