/*--------------------------------*- C++ -*----------------------------------*\
| =========                 |                                                 |
| \\      /  F ield         | OpenFOAM: The Open Source CFD Toolbox           |
|  \\    /   O peration     | Version:  2412                                  |
|   \\  /    A nd           | Website:  www.openfoam.com                      |
|    \\/     M anipulation  |                                                 |
\*---------------------------------------------------------------------------*/
FoamFile
{
    version     2.0;
    format      ascii;
    arch        "LSB;label=32;scalar=64";
    class       volVectorField;
    location    "17";
    object      U;
}
// * * * * * * * * * * * * * * * * * * * * * * * * * * * * * * * * * * * * * //

dimensions      [0 1 -1 0 0 0 0];

internalField   nonuniform List<vector> 
808
(
(0.891782 -0.011098 0)
(1.02538 -0.034692 0)
(1.2098 0.0682834 0)
(1.07069 0.0100271 -2.36691e-21)
(1.46701 -0.296377 0)
(0.961379 -0.030177 0)
(1.14622 -0.049228 4.01146e-22)
(1.10634 -0.0305829 0)
(1.34205 -0.233213 2.18491e-20)
(1.23244 -0.100519 -6.79388e-21)
(1.19809 -0.111611 3.89138e-21)
(1.36996 -0.265015 0)
(0.996851 -0.0371337 0)
(0.74051 -0.0246616 0)
(0.977572 0.0331231 2.07136e-20)
(1.07539 -0.0268944 0)
(0.870938 0.0397355 -6.76083e-21)
(0.994934 -0.0320777 -3.38545e-23)
(1.24468 0.0628822 0)
(1.12383 -0.000130543 0)
(1.25454 -0.109035 -5.43112e-21)
(0.929309 0.125511 1.08751e-19)
(1.0748 0.0118772 -1.05901e-20)
(1.18101 -0.043577 0)
(0.953601 0.188167 0)
(1.31549 0.0372013 -3.39021e-20)
(1.27533 -0.18616 5.72796e-21)
(0.965005 -0.0188379 -5.24896e-22)
(1.07536 -0.0225104 0)
(1.04001 0.0459637 -1.85346e-22)
(0.990183 -0.0234288 1.0063e-24)
(1.12817 -0.0179595 0)
(1.01945 0.0432252 0)
(1.07054 -0.017216 5.08203e-22)
(1.30401 -0.0923721 7.85803e-21)
(0.741122 -0.109756 1.11605e-19)
(0.873797 -0.0284271 -1.68003e-21)
(1.01146 0.040795 6.22659e-22)
(1.18788 0.0445654 -1.03453e-21)
(1.07381 0.0278866 0)
(1.26597 -0.0829737 -1.54071e-20)
(1.27498 -0.14332 0)
(1.00544 0.00071937 -5.13937e-21)
(1.12023 -0.0529122 3.68176e-21)
(1.1953 -0.0608585 0)
(1.01069 0.01691 -1.70863e-20)
(0.989595 0.0361971 8.25642e-22)
(1.2481 -0.256866 -1.25336e-23)
(1.17162 0.0544368 -1.08353e-21)
(1.39669 -0.197597 -3.15639e-20)
(1.14392 -0.0535884 -3.42581e-22)
(1.15124 -0.0780062 0)
(1.12009 -0.00368222 4.57573e-21)
(1.12434 -0.025995 0)
(1.32429 0.228207 5.54045e-21)
(1.06577 0.0487734 -3.59133e-22)
(1.14455 -0.037395 0)
(1.15764 -0.100492 2.89699e-21)
(1.23511 -0.105723 7.29268e-21)
(1.14577 0.0399734 8.51801e-22)
(-0.193967 -0.0931268 0)
(1.21318 -0.216928 -4.70667e-21)
(1.14282 -0.0693147 0)
(1.42831 -0.117137 -2.59704e-20)
(1.12813 -0.0590278 -4.7621e-21)
(1.04018 -0.0303518 -5.2981e-21)
(1.31024 -0.147778 2.49281e-20)
(0.62289 0.0172588 0)
(1.14401 -0.0774038 0)
(1.42428 -0.356798 0)
(0.885137 0.0287937 -1.10099e-22)
(1.21807 -0.148854 -3.68618e-20)
(1.00085 0.0466551 0)
(1.05271 -0.0492283 -1.35682e-21)
(1.11766 -0.335021 -5.86028e-20)
(1.14311 -0.0590905 -1.56608e-21)
(1.15341 0.0255137 6.91674e-22)
(1.32426 0.496901 2.5185e-20)
(1.11682 -0.0422328 0)
(1.01594 0.285407 -1.78706e-19)
(1.34717 0.0144565 1.91753e-20)
(0.728297 0.0225143 0)
(0.842058 0.0342036 -5.72024e-21)
(0.96747 -0.108821 4.30661e-21)
(1.12864 -0.0584592 1.13167e-21)
(1.20168 0.01018 1.86554e-21)
(1.26241 -0.239359 0)
(1.35185 0.284968 0)
(1.09399 -0.00168699 -7.78677e-21)
(1.41723 0.0750353 3.70885e-20)
(1.08193 -0.0221833 1.05673e-20)
(1.31683 -0.137502 -1.26845e-21)
(0.965418 0.0268778 1.63255e-20)
(1.00434 -0.0237814 0)
(1.11612 0.0164052 1.05228e-21)
(1.25416 -0.109384 -6.58911e-20)
(0.756794 0.0205933 -1.11094e-21)
(1.33835 -0.058114 0)
(1.32633 -0.107048 0)
(1.40538 -0.114968 -3.92757e-20)
(1.10892 -0.0503882 -5.41956e-22)
(1.13209 0.00804442 6.04046e-23)
(0.954661 0.0243062 8.78925e-21)
(1.19562 0.00447009 -8.13199e-22)
(1.34769 0.0148971 -2.71341e-20)
(0.99995 0.00633896 1.05264e-20)
(1.45385 -0.0432542 0)
(0.893742 0.0342004 0)
(1.09548 0.03371 5.70299e-22)
(1.19716 -0.224166 -8.28001e-21)
(1.29275 0.000416689 1.42593e-20)
(1.04902 0.0487199 -1.20118e-19)
(1.15676 0.0423511 -1.34398e-22)
(1.1442 0.0876067 4.81181e-21)
(0.793639 0.0175327 0)
(0.916805 -0.0452107 7.60385e-20)
(1.1491 0.0249745 -8.32849e-22)
(1.41567 -0.270672 -1.57219e-20)
(1.11352 -0.0531028 -3.02234e-21)
(0.92431 0.0140143 2.57759e-21)
(-0.27782 -0.0473153 0)
(0.863355 -0.0163961 2.0414e-21)
(0.803581 0.0246175 0)
(1.06349 0.000736158 -8.06995e-23)
(1.01241 0.0286114 0)
(1.31475 0.319922 8.63176e-21)
(1.03308 -0.0563685 -3.08193e-20)
(1.27257 0.132321 2.83689e-21)
(1.14976 -0.0686035 0)
(1.09084 -0.0246976 0)
(0.539301 -0.0300723 0)
(1.11055 -0.03911 -1.8685e-21)
(1.25694 -0.0604707 8.9763e-21)
(1.06771 0.113782 -3.10477e-20)
(0.847255 -0.0178055 0)
(1.10593 0.0252087 -1.75443e-22)
(1.11931 -0.011348 2.23855e-21)
(1.15291 0.00586556 -6.22485e-22)
(0.984804 0.0351994 1.47274e-21)
(1.13376 0.00544119 -5.06397e-23)
(0.00374831 0.0644119 0)
(1.09703 -0.0246649 -1.18388e-20)
(1.19327 0.0506491 1.03267e-21)
(0.715936 0.0257318 -1.33996e-21)
(1.26298 0.168822 2.38331e-21)
(1.02782 0.0014514 4.72563e-21)
(1.04995 0.0171068 1.56362e-20)
(0.990334 0.0262766 0)
(1.13018 -0.068649 -1.33411e-20)
(1.0213 0.0104268 0)
(0.933339 0.0315487 2.56262e-21)
(0.969557 0.285116 1.43078e-19)
(0.965392 0.0351715 0)
(0.818054 0.103795 0)
(-0.107605 0.0436075 -7.0153e-20)
(1.34392 0.132138 -1.40863e-20)
(0.673386 -0.0233088 0)
(1.46418 0.0202454 0)
(1.1485 -0.00105583 0)
(1.35637 0.0828761 1.59303e-20)
(-0.0362742 -0.0740471 0)
(-0.0563589 0.0854839 3.41298e-20)
(0.945517 -0.0616557 7.04375e-20)
(1.00247 0.0407132 1.07298e-22)
(0.861354 0.000764202 0)
(1.02953 -0.0431458 4.81522e-21)
(0.895395 0.0224467 0)
(0.683983 -0.0389331 -7.61361e-20)
(1.01919 0.0450048 2.43716e-21)
(1.11376 -0.0598301 1.72407e-21)
(1.09937 0.00901999 4.16747e-21)
(1.01495 0.0707126 -1.09395e-20)
(0.70083 -0.049209 -4.70465e-21)
(1.13379 -0.350256 6.68042e-22)
(0.915414 -0.0260569 0)
(1.07099 -0.000813929 -1.25673e-20)
(0.875684 0.0103303 -8.99405e-21)
(1.3743 -0.183179 1.92587e-21)
(0.69324 0.0291193 0)
(1.02168 -0.145915 0)
(1.10021 -0.052363 1.77219e-21)
(1.39438 0.213183 1.12676e-20)
(1.11991 0.0179843 2.40718e-21)
(1.03723 0.0170368 1.94719e-20)
(0.736771 0.00604198 -7.82644e-20)
(0.815037 0.00328393 1.70588e-20)
(1.13701 -0.0185246 1.6463e-21)
(1.39365 -0.103709 -4.89553e-21)
(1.10148 -0.0567449 -3.61909e-21)
(1.3283 -0.0627312 4.19493e-21)
(-0.11244 0.0659094 5.13324e-20)
(1.28603 -0.0442097 0)
(0.598589 -0.0203986 0)
(1.06254 -0.027898 -6.27226e-21)
(1.10316 0.0118234 1.45755e-21)
(0.0622802 0.0794895 0)
(0.875637 -0.0215262 1.55673e-22)
(1.09938 -0.0505798 -2.02789e-21)
(0.979094 0.0173763 -9.69484e-24)
(1.07915 0.0376248 -6.43523e-21)
(1.00998 0.0207592 2.7566e-21)
(1.03004 -0.0388933 1.78884e-21)
(1.04426 0.0331674 0)
(0.314752 -0.0377916 0)
(1.04768 -0.0623852 0)
(1.15347 0.105747 -3.06132e-20)
(-0.0390398 -0.0741977 4.40753e-20)
(1.06549 0.0128486 -4.08717e-24)
(1.20678 0.0977708 0)
(0.75328 0.0196921 -2.52439e-21)
(1.15396 -0.0515666 5.67145e-22)
(-0.00707233 -0.0379822 -1.3902e-19)
(0.742059 -0.0133495 -4.20146e-20)
(0.616552 -0.0214171 0)
(1.00874 -0.0546689 0)
(0.924789 0.0415793 4.45247e-21)
(0.988616 -0.114466 5.27508e-21)
(1.28223 0.397018 1.66262e-21)
(1.11601 -0.0502253 -3.14627e-23)
(1.11731 -0.0722037 -4.2227e-21)
(1.02424 -0.0416673 0)
(1.36571 0.422526 -4.23838e-20)
(0.644896 -0.0189048 0)
(0.801844 -0.0218788 -1.93664e-21)
(1.04735 -0.00879797 1.03152e-22)
(0.562852 0.0164111 0)
(1.09978 -0.00615881 0)
(0.0163487 -0.0280519 -3.86445e-20)
(1.08806 -0.0557036 -8.98671e-21)
(0.732491 -0.00786936 5.35173e-22)
(0.991224 -0.00263076 0)
(0.531319 -0.0157526 0)
(0.761054 -0.0145453 -1.44264e-21)
(0.52486 -0.0126294 -4.15436e-22)
(1.32939 0.032321 3.39445e-22)
(1.23453 0.0907493 -2.81875e-21)
(0.704461 0.01012 -5.4098e-22)
(1.09899 -0.02219 -3.10924e-24)
(1.15211 -0.0559467 2.96482e-23)
(0.530821 0.0147805 1.78584e-21)
(1.15458 -0.03771 2.27971e-22)
(1.14071 -0.0328521 0)
(0.965137 -0.0580387 0)
(0.489501 0.0147548 0)
(1.02509 -0.0013828 0)
(1.14967 0.00240752 -1.95119e-22)
(1.06773 -0.0387383 0)
(1.10895 -0.0156897 0)
(1.04733 -0.0213524 0)
(1.06581 -0.036449 0)
(-0.0199313 -0.0334692 4.29685e-20)
(1.21773 0.00893332 8.69527e-23)
(1.09187 -0.0146783 0)
(1.37033 0.00515327 2.20171e-20)
(1.1608 0.00976424 1.52195e-22)
(1.10662 0.0538516 -8.19457e-22)
(1.14082 -0.000223721 3.25849e-21)
(1.16247 0.002009 0)
(0.556981 -0.0179505 3.462e-21)
(1.0521 0.0428494 1.06398e-20)
(1.18424 -0.0143618 0)
(1.1913 -0.040189 -6.40004e-22)
(1.15638 -0.00184794 1.24071e-21)
(0.598852 0.178608 -6.10419e-21)
(1.1326 0.0346045 2.58653e-21)
(1.20258 -0.0145384 -2.50338e-21)
(1.02815 0.0485446 0)
(1.1543 0.0279613 -1.66273e-20)
(1.12777 0.0328947 -3.19497e-21)
(0.75838 -0.0620224 4.35356e-21)
(0.930141 0.099731 0)
(-0.0189139 -0.0205628 0)
(0.977068 0.114721 -1.72777e-20)
(1.14201 -0.015857 0)
(1.26904 -0.0638603 2.00759e-20)
(1.15614 0.0352837 5.94936e-22)
(1.16899 -0.0222775 2.40665e-21)
(1.13385 0.0289064 -1.00809e-21)
(1.34418 -0.0700647 9.6716e-20)
(1.01469 -0.322177 5.91635e-20)
(1.1183 -0.0258963 -4.25476e-22)
(1.00657 0.0697191 0)
(0.922584 0.0830316 0)
(0.901164 0.0016636 -2.61696e-20)
(1.23397 -0.0765962 -3.87511e-20)
(1.16264 0.00178399 0)
(0.603777 -0.118504 1.03442e-20)
(0.308339 0.100771 0)
(0.78799 0.0728596 5.98991e-21)
(0.828417 -0.0682581 -1.18613e-20)
(0.80719 0.0290117 -2.70074e-21)
(1.15112 -0.000822683 0)
(1.2356 0.0583173 -6.93978e-22)
(1.16904 0.0839257 2.88649e-21)
(0.749134 0.0100021 -8.55084e-21)
(1.17604 0.00240791 -2.91007e-21)
(0.876735 0.0427756 0)
(1.09203 0.0717227 0)
(1.06176 0.00177206 7.14689e-21)
(0.813533 0.0263718 -6.0508e-21)
(1.24204 0.0195321 5.04469e-21)
(1.13355 -0.0214289 -2.35968e-21)
(1.01984 0.0815567 5.17656e-22)
(1.12248 -0.0139415 0)
(0.406125 -0.136287 1.28666e-20)
(1.33658 0.0814404 -2.42491e-20)
(0.935798 0.001642 -5.09896e-21)
(0.0486497 0.163883 6.4539e-21)
(1.41933 -0.162799 2.27514e-20)
(0.915852 -0.0509345 7.33508e-20)
(1.20134 0.0166441 -7.28698e-21)
(1.11077 -0.0201594 -4.18905e-22)
(-0.058091 -0.0741639 -7.52291e-21)
(1.00023 -0.00691805 0)
(1.03387 -0.0858395 -1.61145e-20)
(0.857089 -0.0329725 1.8567e-21)
(1.09702 -0.0577251 1.61164e-21)
(0.758818 -0.0440432 -1.02078e-21)
(0.518675 -0.0133952 -6.09672e-22)
(1.40497 -0.389311 -1.50041e-20)
(1.12638 0.0443143 0)
(1.01253 -0.00521732 7.68908e-22)
(1.13431 0.0392973 -1.35287e-21)
(1.25592 -0.00287846 0)
(0.811425 0.053658 -5.43444e-21)
(1.13021 0.0397882 1.96871e-21)
(0.715443 -0.0826553 2.08995e-20)
(1.15471 -0.0338383 8.72906e-21)
(0.894597 0.0576861 3.3581e-21)
(-0.0371787 -0.010084 0)
(0.535499 0.236947 2.60598e-20)
(1.1504 0.0430581 0)
(0.987409 0.210868 1.08127e-20)
(0.932516 0.226908 0)
(1.12787 -0.00554881 -1.45871e-21)
(1.01598 0.0264332 0)
(1.07382 0.0250452 0)
(1.39702 -0.140813 1.9915e-20)
(0.794102 -0.082773 0)
(1.19034 -0.160617 1.18626e-20)
(1.0861 -0.0213003 7.65452e-23)
(1.0531 0.0419259 1.62575e-21)
(1.26171 -0.0617269 -1.22118e-20)
(1.24527 0.117564 -7.53738e-21)
(1.20953 -0.0729056 1.49338e-20)
(1.16747 0.0410651 0)
(1.194 -0.048827 0)
(1.11909 0.041275 1.54505e-21)
(1.22431 -0.020138 0)
(1.41789 0.208661 -2.78816e-20)
(0.762278 -0.102454 -4.07607e-23)
(1.02748 0.0169008 1.86109e-20)
(1.28506 0.0223771 -4.12411e-22)
(-0.0129072 0.0104881 0)
(-0.0265045 -0.0511715 0)
(0.035564 0.0370605 -3.64105e-20)
(-0.0559241 -0.0785601 0)
(0.708698 -0.134507 -1.19248e-20)
(1.17265 0.04166 -1.18601e-21)
(1.17628 -0.0706166 -1.92368e-21)
(1.24327 -0.0589376 -2.60059e-21)
(1.206 -0.0329339 0)
(0.705943 -0.00166815 -1.09137e-22)
(1.14625 0.0378218 0)
(1.09893 0.0148946 -1.62183e-22)
(0.49161 -0.108308 0)
(0.798558 -0.111141 -2.77608e-22)
(1.11854 0.0476904 0)
(1.13323 0.0379902 0)
(0.705153 0.00673723 5.04958e-20)
(0.658392 -0.0857956 -1.56369e-21)
(0.8914 -0.0162337 1.88972e-21)
(1.01221 0.0173362 -8.9468e-21)
(0.148323 -0.0746077 0)
(1.2104 -0.122104 -1.66708e-20)
(1.23247 0.0911892 -8.79902e-21)
(1.14042 -0.111204 -5.3825e-22)
(0.767469 -0.0483952 2.19063e-21)
(-0.0503956 -0.0362595 -9.27315e-20)
(1.13239 0.0713653 0)
(-0.0356649 0.0436336 0)
(1.16589 0.100363 -3.88517e-22)
(0.477863 0.0721723 -2.35764e-21)
(1.12081 0.0498944 -5.70724e-21)
(1.11526 -0.0414775 0)
(1.17703 -0.0903629 1.50071e-21)
(1.20042 -0.113184 1.27403e-20)
(0.517475 -0.0497442 -8.73288e-21)
(1.14668 -0.035658 1.16285e-21)
(1.18716 -0.0546234 8.97935e-24)
(-0.0327199 0.0108783 1.28064e-20)
(1.26865 -0.0779942 -9.53386e-22)
(1.13706 0.0449791 0)
(1.13819 0.0629701 0)
(1.195 -0.0412059 4.31157e-21)
(1.1761 0.0928468 7.95223e-21)
(0.599249 -0.121284 -3.2316e-20)
(1.1914 -0.127057 -1.53026e-20)
(1.11489 0.0611916 7.75683e-22)
(0.491431 -0.0018184 6.70702e-21)
(0.208043 -0.112163 -9.15952e-20)
(-0.0893164 -0.283635 2.33699e-20)
(1.17515 0.184597 -6.67414e-21)
(1.22595 -0.49392 4.3167e-21)
(1.42976 0.0592491 -1.87234e-20)
(1.20743 -0.0378639 -5.10944e-21)
(0.933932 -0.230049 9.46053e-20)
(-0.284962 -0.113805 0)
(1.15029 -0.0419419 -2.92667e-22)
(0.177168 0.151934 -2.48124e-20)
(1.14903 0.0952534 3.36189e-22)
(1.13917 -0.0384409 5.67187e-21)
(1.08647 0.0412389 0)
(0.650593 0.0201812 0)
(1.17604 -0.0579652 0)
(1.25675 0.209709 -5.93534e-21)
(1.27574 -0.0276306 -2.93573e-20)
(1.15769 -0.0459373 -3.65e-21)
(0.479048 0.00758927 0)
(0.645969 -0.00449844 0)
(0.654961 0.00643196 5.82061e-22)
(0.472592 -0.00690328 0)
(1.15298 0.0623221 0)
(1.02066 -0.0136885 2.42549e-20)
(0.183802 0.182242 0)
(0.914634 0.0227381 0)
(1.10919 -0.0160453 0)
(1.17677 0.184566 -2.31408e-21)
(1.27917 0.0468793 1.49078e-20)
(0.965517 -0.0307493 3.97184e-21)
(1.2765 -0.401067 -1.01544e-19)
(0.498992 -0.0195778 -1.77241e-21)
(1.23389 0.0226247 5.5431e-21)
(1.24716 -0.0471397 0)
(-0.402326 -0.0678914 0)
(-0.250191 0.0224524 0)
(1.16426 -0.0318862 -7.12421e-21)
(1.31353 -0.29501 -1.98511e-20)
(1.35316 0.140054 0)
(1.08685 0.0438143 -4.90608e-21)
(0.322552 -0.149886 0)
(1.4995 -0.183213 6.53486e-20)
(0.414088 0.523246 1.09249e-19)
(0.257886 -0.0418081 0)
(1.08243 -0.27767 1.08993e-19)
(0.282672 -0.0898452 0)
(-0.320759 -0.0664106 6.49496e-21)
(1.38488 0.110232 0)
(-0.0926271 -0.0430286 -1.30781e-21)
(0.983517 -0.0497352 0)
(1.2462 -0.0644288 -8.47092e-21)
(-0.133384 -0.00420026 -7.33521e-21)
(1.12418 -0.0291272 -5.66474e-22)
(1.1986 -0.139942 -4.06146e-21)
(0.568738 -0.508145 -9.25161e-20)
(1.12716 0.00082595 -3.64708e-22)
(1.19287 -0.133917 4.1379e-21)
(1.18491 0.24902 -1.6656e-20)
(1.13697 -0.0745654 -6.75197e-22)
(1.15931 -0.0126547 -1.31788e-21)
(-0.109791 -0.176266 -6.22456e-20)
(0.0603292 0.0892161 -7.72741e-21)
(1.22864 0.0643193 2.33885e-21)
(1.05873 -0.0514287 0)
(0.473918 -0.0478602 -8.57421e-21)
(1.3887 -0.444703 7.54929e-20)
(0.899682 -0.0778874 -5.38135e-20)
(1.44224 0.145987 8.38922e-20)
(1.08866 -0.0543081 5.68071e-22)
(1.24005 -0.0978529 1.41678e-21)
(1.06219 -0.00722689 0)
(1.18934 -0.0255797 0)
(1.26055 -0.0567617 4.15023e-21)
(1.08647 -0.0210168 -4.50595e-21)
(1.14347 -0.0730062 9.92653e-22)
(1.08514 0.04823 -3.77518e-21)
(1.44032 -0.0571798 -4.70232e-20)
(0.446487 0.0337499 0)
(1.25121 -0.0616734 -1.67176e-21)
(1.35827 0.0887217 0)
(1.10379 0.0623131 -9.09944e-22)
(1.14317 0.0236912 0)
(1.04239 -0.00972012 1.21737e-20)
(1.23301 0.0320707 1.79681e-20)
(1.09938 -0.00787193 0)
(0.0503238 -0.0291788 1.47278e-19)
(0.88223 -0.208405 -7.4201e-20)
(1.2494 -0.0722195 -2.82553e-20)
(-0.110975 -0.0103595 4.00936e-20)
(1.20545 0.0376983 4.57734e-22)
(0.806564 0.00878764 -2.77571e-22)
(-0.0953168 0.0197423 -4.18003e-20)
(-0.0262924 0.0338977 -2.70324e-20)
(1.01755 -0.0305157 0)
(-0.0270207 -0.0303149 0)
(1.24441 0.0336754 0)
(0.111314 -0.0980171 0)
(1.11676 -0.0272114 0)
(0.130542 0.0302662 0)
(1.1173 0.0564114 0)
(1.21273 0.151042 0)
(1.33217 0.122893 -1.76383e-21)
(0.567289 -0.281737 -2.00541e-20)
(-0.143265 0.103151 0)
(1.09985 -0.103609 5.59922e-20)
(1.23422 0.000622706 7.75866e-22)
(1.33133 0.00490201 0)
(-0.0360195 -0.0386289 0)
(1.16088 0.0123352 5.88974e-21)
(1.16917 -0.00708465 -2.83969e-21)
(1.17238 0.391307 0)
(0.217878 -0.0645271 5.45794e-20)
(1.12092 0.0581531 8.39895e-22)
(0.226679 -0.0509565 -5.00435e-20)
(-0.0614753 0.0502811 -3.30994e-20)
(-0.034927 0.0495787 8.51988e-20)
(0.530484 0.0268019 4.11144e-20)
(1.05576 -0.0335385 2.61189e-22)
(1.13012 0.0682006 3.02632e-21)
(1.02244 -0.00801187 0)
(1.0697 -0.0721051 -2.16043e-20)
(1.25552 0.0699944 -1.60226e-20)
(-0.00871783 -0.0107077 9.60591e-20)
(0.979448 -0.0714174 -5.95975e-20)
(0.608167 0.051452 1.43453e-20)
(1.1081 0.000302757 -2.90587e-21)
(0.0703325 -0.0297968 3.15198e-20)
(0.238019 -0.0376407 -4.49934e-20)
(0.373187 -0.0525964 -4.9473e-20)
(1.20264 0.153907 -2.57878e-21)
(-0.0515949 -0.0315445 0)
(0.964156 0.117623 6.97651e-21)
(1.17617 -0.087594 3.39356e-21)
(1.13941 -0.0402593 -3.27182e-21)
(1.27489 -0.0386173 0)
(1.50923 -0.238116 6.57811e-20)
(1.10973 0.0194306 -9.77245e-22)
(-0.0114264 -0.0243803 -3.21701e-20)
(0.305556 0.0807522 0)
(0.905691 0.0256435 2.08858e-23)
(1.13673 0.026514 -1.24081e-21)
(0.683277 -0.116135 1.36885e-20)
(1.16292 0.00980272 -2.03293e-21)
(1.11744 0.0497163 0)
(1.11954 -0.174076 -1.38122e-20)
(-0.0867473 -0.04967 -6.11963e-20)
(1.32045 -0.039462 2.23078e-20)
(1.10527 0.176209 -8.89136e-21)
(1.08919 0.0442259 4.31763e-21)
(-0.0371825 -0.0452915 1.44075e-20)
(-0.0265831 0.0429252 -6.53081e-20)
(0.661996 0.0101344 0)
(0.830514 0.125448 0)
(1.15354 0.0982639 -1.25402e-20)
(1.0524 0.0694996 1.0763e-20)
(1.10133 0.022527 0)
(0.407032 -0.0477668 4.04945e-20)
(0.734355 0.0892045 -1.18141e-20)
(1.09915 0.108707 0)
(1.08719 0.0378523 0)
(1.39504 0.123428 0)
(1.20017 0.0512251 0)
(1.1953 0.00812128 2.0142e-21)
(-0.0431305 0.0461454 3.61521e-20)
(1.18785 0.0581222 3.47997e-21)
(1.38723 -0.204304 -7.46621e-20)
(1.27061 0.0305622 -3.50062e-21)
(0.01475 0.00612038 0)
(1.18043 -0.0832548 0)
(0.647257 -0.000175292 6.71404e-22)
(0.538747 0.00895607 -6.06452e-20)
(0.0719523 0.0362764 4.91686e-20)
(0.945998 -0.00315886 -9.16712e-22)
(0.729787 -0.26971 0)
(0.66196 -0.0901515 0)
(1.22068 0.0375335 0)
(0.542716 0.516997 2.44193e-20)
(-0.0187982 0.0319835 -3.02894e-20)
(1.08318 -0.0181126 -2.17747e-21)
(-0.0180223 -0.0349782 6.05519e-20)
(1.10504 -0.0357836 1.7984e-21)
(1.17781 0.316423 3.17675e-20)
(1.11277 -0.0932405 8.08142e-21)
(0.266539 -0.0880716 8.12134e-20)
(1.01862 0.0289343 3.81423e-21)
(1.18668 -0.151426 0)
(0.561437 0.272584 0)
(0.948872 0.0284542 2.70683e-21)
(-0.190972 0.0521683 0)
(0.606562 0.0294128 1.31088e-21)
(0.596016 -0.411896 -2.81063e-21)
(0.240293 0.049457 -1.14954e-19)
(1.12106 -0.227794 3.39466e-20)
(1.04168 0.368395 9.77445e-21)
(0.978521 0.0216446 0)
(1.22676 -0.0654981 9.17181e-23)
(0.648781 -0.00229745 0)
(0.981488 0.00617128 -7.1987e-22)
(0.419167 -0.0194759 0)
(0.711443 0.136522 0)
(0.999821 -0.0212319 -1.3348e-21)
(1.43971 0.170099 -1.59962e-20)
(1.09881 -0.0227693 2.04955e-21)
(0.516261 -0.485362 0)
(1.13217 -0.157529 2.53184e-21)
(0.805712 0.383705 6.90049e-20)
(-0.039613 0.0212622 1.20057e-21)
(1.21837 -0.0200747 1.19429e-20)
(1.21354 0.0321925 -1.39695e-20)
(1.12993 -0.0308038 6.54501e-22)
(0.788547 0.00856181 -1.51368e-21)
(0.06274 0.0187039 3.84079e-20)
(-0.0178104 -0.00345769 -5.40467e-20)
(-0.20504 0.0342182 0)
(-0.201375 0.161474 0)
(1.17313 -0.611468 2.99848e-20)
(1.15364 -0.0257858 1.28598e-21)
(0.875343 -0.459785 -3.96492e-20)
(1.01029 0.143867 -1.50793e-20)
(1.37159 0.198252 3.61173e-20)
(0.606386 0.422832 0)
(0.247728 0.420081 -1.12287e-19)
(0.597603 0.48808 0)
(0.0363069 0.0523229 0)
(1.11492 -0.477507 0)
(-0.0489674 0.0420233 -4.19219e-22)
(1.20381 -0.0206776 0)
(0.932361 0.201001 -3.56835e-20)
(0.598272 0.698403 2.06521e-20)
(1.34396 0.209019 1.38222e-20)
(-0.0357906 -0.0718131 -1.01053e-19)
(0.793948 0.222235 -2.03268e-20)
(0.454214 0.145105 -1.38384e-20)
(1.20488 0.0912584 0)
(1.3654 0.356354 3.83503e-20)
(1.22703 0.569334 9.78402e-21)
(0.16024 -0.0139743 -2.29176e-20)
(1.01301 0.130624 3.38887e-20)
(0.930045 -0.010446 3.37655e-23)
(0.907576 0.0130843 1.72765e-22)
(-0.00688764 -0.0264727 0)
(0.640426 -0.643529 -3.1104e-20)
(0.613549 0.208664 0)
(0.0423401 -0.0938223 0)
(-0.0506033 0.067611 0)
(-0.0132386 -0.0814597 -3.79728e-20)
(1.23446 -0.00306306 -1.37114e-20)
(-0.0267164 0.0676356 0)
(-0.0372002 0.062151 0)
(1.44604 0.114527 -8.09994e-20)
(-0.0358664 -0.0620679 4.57963e-20)
(0.115545 0.239102 -9.97695e-20)
(0.389054 0.0179344 0)
(0.167474 -0.270789 8.17876e-20)
(1.06681 -0.239207 0)
(0.992549 -0.282188 0)
(-0.00623644 -0.0721957 9.4929e-20)
(1.14953 0.0345661 2.20091e-23)
(1.12934 0.34598 2.65178e-20)
(0.263328 0.0281211 4.74661e-20)
(0.398999 -0.509874 -3.95848e-20)
(1.30013 0.0720443 0)
(1.2246 0.195537 2.28888e-20)
(1.2238 0.211597 -2.81149e-20)
(0.10278 0.0951186 -2.32781e-20)
(-0.0633316 0.016191 0)
(1.06931 -0.05883 -1.96644e-20)
(1.09845 -0.222829 -1.6686e-20)
(0.578654 -0.395564 0)
(1.09553 -0.149432 -2.64997e-20)
(-0.0869874 0.135042 0)
(0.609646 0.0477531 0)
(1.45531 0.0028504 4.09999e-20)
(0.986019 0.0230441 1.11584e-22)
(1.08164 0.749297 -1.41454e-20)
(0.222594 -0.371898 1.34323e-19)
(1.07306 0.00521735 -1.91782e-22)
(1.2084 0.0716628 1.69268e-21)
(-0.0532873 0.0769843 3.09614e-20)
(0.791002 0.737656 2.58926e-20)
(1.33797 -0.374483 -1.28523e-20)
(-0.197391 -0.158646 6.87163e-20)
(1.12242 0.0437844 0)
(0.237795 -0.0353927 -8.89377e-21)
(0.886527 -0.628214 2.5351e-21)
(0.903952 0.644795 -2.21657e-20)
(0.526854 -0.0370111 -5.84071e-20)
(1.1468 -0.00616639 2.31417e-21)
(1.07624 -0.0862299 7.02928e-21)
(1.15829 0.0651934 -2.41291e-21)
(1.10652 0.121177 2.62159e-21)
(1.1306 -0.133181 0)
(0.911997 0.11035 1.49347e-20)
(0.890341 0.460837 0)
(1.30067 0.136979 5.66204e-21)
(1.16921 0.112643 -2.08829e-21)
(0.754908 0.265085 0)
(0.522353 0.110494 1.09652e-19)
(0.89722 0.717599 -8.05923e-22)
(1.08146 0.293287 -2.03653e-20)
(1.04407 -0.0119561 1.18583e-20)
(0.417075 0.49965 0)
(1.28487 -0.473984 0)
(0.629352 -0.0998969 5.5497e-21)
(1.26808 0.505744 0)
(-0.024282 0.0586312 -4.39035e-20)
(1.27391 -0.416698 -3.34945e-21)
(1.16928 0.513328 0)
(0.452719 0.226187 1.67706e-19)
(1.1274 0.317489 -1.22946e-19)
(0.807904 -0.632071 -2.71729e-20)
(1.16538 0.0651694 -4.29611e-21)
(0.919225 0.152242 8.32171e-20)
(1.09107 0.169938 4.79418e-20)
(1.07506 0.707965 -3.91703e-22)
(0.897103 -0.431832 6.69221e-20)
(1.43558 0.179025 4.36857e-20)
(1.1305 0.00910025 7.44695e-23)
(0.000427289 -0.0416492 8.50453e-20)
(1.07114 -0.696249 2.09744e-20)
(0.862294 -0.711593 5.68211e-20)
(0.248464 -0.320821 0)
(0.971003 -0.144809 7.37352e-20)
(0.363497 0.316907 -4.35322e-19)
(-0.11423 0.0362345 2.02605e-20)
(0.244956 0.0466095 2.32724e-20)
(0.656423 -0.059171 -6.91357e-20)
(1.08331 0.533735 0)
(0.994065 0.225174 7.7854e-20)
(1.08853 0.0309417 2.76069e-21)
(0.913645 0.447806 -8.89685e-20)
(0.771398 -0.715921 -9.18925e-21)
(0.926923 0.0272531 -4.89011e-20)
(0.980655 0.494624 0)
(1.20657 0.214587 -1.86687e-20)
(1.36896 -0.515272 1.19122e-20)
(1.2211 -0.34164 8.43968e-21)
(-0.230554 0.0264392 3.59069e-20)
(0.193822 0.0149383 -1.80968e-20)
(0.972303 -0.115475 -5.81532e-20)
(0.355495 0.532764 0)
(0.915533 0.0214853 3.89637e-20)
(1.16067 0.639286 8.30797e-20)
(-0.0818322 -0.0476721 1.30246e-19)
(-0.0668622 0.0629514 -2.58003e-20)
(-0.0778013 -0.0461766 3.92977e-20)
(1.09783 0.0234846 -3.59635e-21)
(1.11546 -0.457578 0)
(1.0569 -0.7282 -4.64893e-20)
(0.700213 0.356053 0)
(0.00689123 -0.0460957 -9.17949e-20)
(1.09704 0.016422 1.45566e-21)
(-0.0310432 -0.0506748 -2.71397e-20)
(1.04807 0.0558803 -1.23489e-20)
(0.104712 0.0334586 5.68965e-20)
(0.848668 0.127815 0)
(1.38566 -0.0646674 4.59659e-20)
(0.0500531 0.0548456 -2.64234e-20)
(-0.239933 0.0700087 -4.26352e-20)
(-0.2238 0.0815123 0)
(0.0749294 -0.0118287 0)
(1.34351 -0.0329752 -1.22587e-20)
(0.365162 -0.0112858 1.42361e-19)
(1.25361 -0.721791 -1.64461e-20)
(0.928584 -0.165654 2.95759e-20)
(1.07593 0.2538 -2.82106e-20)
(0.363081 -0.546495 1.41676e-19)
(1.55212 0.279837 -3.60878e-20)
(0.053262 -0.0525674 3.27731e-20)
(0.209131 0.31502 1.94141e-19)
(0.0815146 -0.0303433 -1.23237e-19)
(0.93687 -0.487916 -4.40971e-20)
(1.45762 0.389389 3.67791e-20)
(0.559114 -0.666189 5.04015e-20)
(1.10672 -0.0866414 -6.96832e-21)
(0.155337 0.0209638 4.92518e-20)
(1.18487 0.292294 -4.90024e-20)
(0.664835 0.646705 -3.95211e-20)
(1.32157 -0.620243 0)
(1.42118 0.521512 3.45971e-20)
(1.0451 -0.524298 -1.20767e-20)
(1.39261 0.609221 -1.04895e-19)
(1.19226 0.0378024 0)
(-0.0549073 0.0841966 0)
(1.25549 0.733357 0)
(1.19319 0.0587535 -3.95458e-21)
(0.736358 -0.295059 -2.08037e-19)
(0.475378 -0.0751191 0)
(-0.0562925 0.0897054 -2.62363e-20)
(1.01895 -0.245185 1.00467e-19)
(-0.325611 -0.0325852 0)
(0.321309 0.0349165 1.22269e-20)
(1.15246 0.0407305 0)
(1.41792 0.275825 0)
(1.19857 0.0615719 4.60037e-21)
(0.358811 -0.28241 0)
(1.0157 0.153137 3.58855e-20)
(1.31138 0.287325 0)
(-0.0893202 0.0676026 -6.51765e-22)
(0.808502 -0.38958 0)
(1.51987 0.339186 -5.47067e-20)
(1.24493 0.371501 -1.45119e-21)
(0.844151 0.652376 -9.55664e-21)
(1.01382 0.159697 -8.5925e-20)
(0.967658 -0.201928 -4.88968e-20)
(1.45607 0.29551 3.21786e-20)
(1.01406 0.101351 0)
(0.563468 -0.0639282 0)
)
;

boundaryField
{
    FrontBack
    {
        type            empty;
    }
    Top
    {
        type            noSlip;
    }
    In
    {
        type            fixedValue;
        value           uniform (1 0 0);
    }
    Bottom
    {
        type            noSlip;
    }
    Out
    {
        type            zeroGradient;
    }
    circle
    {
        type            noSlip;
    }
}


// ************************************************************************* //
