/*--------------------------------*- C++ -*----------------------------------*\
| =========                 |                                                 |
| \\      /  F ield         | OpenFOAM: The Open Source CFD Toolbox           |
|  \\    /   O peration     | Version:  2412                                  |
|   \\  /    A nd           | Website:  www.openfoam.com                      |
|    \\/     M anipulation  |                                                 |
\*---------------------------------------------------------------------------*/
FoamFile
{
    version     2.0;
    format      ascii;
    arch        "LSB;label=32;scalar=64";
    class       volVectorField;
    location    "1402.5";
    object      U;
}
// * * * * * * * * * * * * * * * * * * * * * * * * * * * * * * * * * * * * * //

dimensions      [0 1 -1 0 0 0 0];

internalField   nonuniform List<vector> 
808
(
(0.7562517590120311 -0.01750805691161718 0)
(1.031226158641223 -0.01251419152955891 0)
(1.116284029055889 -0.001519071648550508 -1.814994294653144e-20)
(1.085123239171953 0.01259515753029223 0)
(1.363057300116107 0.01643125166109943 -3.912947876056761e-19)
(1.038650031666565 -0.009327872276734955 -7.14782179668894e-20)
(1.01352064497384 -0.02045883977110927 -2.318604412343957e-20)
(1.078524690774348 -0.004920023522443437 8.944093003043606e-21)
(1.253194933103797 -0.01916202781974423 6.369059902010975e-20)
(1.08436927501724 0.00975183050815101 0)
(1.013820193268035 -0.01040437731926358 0)
(1.305085779133822 -0.05195409157470603 -3.561631606593178e-19)
(1.085922704662862 -0.001600736602854074 2.030448345137611e-20)
(0.6750400576462071 0.00642040307146386 0)
(1.286022976820038 -0.1175966585799244 0)
(1.081577613271019 0.0001857328407686914 -3.807206806231396e-20)
(1.233949105390413 -0.1499245897873335 -1.002969014382062e-19)
(1.074156835679477 2.14495209900809e-05 3.155758558499764e-20)
(0.9929862868084554 0.006315094780562524 0)
(1.026599622570256 0.009154784943274277 0)
(1.041036349035561 -0.01235952245586873 0)
(0.9874611309605879 0.04457803683343821 0)
(1.05110070563921 -0.006089669844317762 5.519733793138194e-20)
(1.053361662761549 0.008689126036780896 0)
(0.9329671969805872 0.1980900640790881 4.608417886647442e-19)
(1.16656120355778 -0.08881344472957137 0)
(1.185005957048813 -0.0181596400873134 1.589673954385506e-19)
(1.077357137656118 0.00939153624187815 5.19553470517639e-20)
(1.084193341493138 0.00204740205760038 5.050530848149675e-21)
(1.072056771530027 0.03095106212449544 0)
(1.075647245892711 0.002540247283255616 -1.172783763076386e-20)
(1.033121446829716 0.006391689273101238 -1.963624521930206e-19)
(1.05982653332039 0.01487837559147188 -2.402134474274346e-20)
(1.089103562006021 0.005195963477116101 -2.92661703768393e-20)
(1.11939752276616 0.03801851224571722 0)
(0.7551525594422855 -0.1224834177265141 -4.536319226824876e-19)
(0.9544116659027578 -0.005799570831621052 0)
(1.069002131923096 0.02247905372758783 0)
(1.068843117487668 0.007334402021188476 0)
(1.073591233010671 0.00889939659795874 -2.835933232109253e-20)
(1.091910247723525 0.02353166093659297 1.115587765449062e-19)
(1.149827636418634 0.003651857106940074 2.186686601976047e-19)
(1.095754135047898 -0.002464288392942279 0)
(1.015952339782172 -0.009067546669343875 0)
(1.131582967347218 -0.09857379823990599 -1.659521239869621e-19)
(1.044086499464155 -0.01169394204130162 -7.926736510656526e-20)
(1.058406602156593 0.02666054028473131 -2.849085283832025e-20)
(1.230631986210765 -0.1113413366854487 -5.635438931403112e-20)
(1.067780303525875 0.0122833763057884 -4.265656513564148e-20)
(1.256131663439351 0.01847394344270473 0)
(0.9965489601164567 -0.01807360357693078 2.066117493377784e-21)
(1.044529017966263 -0.002171167622869743 0)
(1.087476438562878 -0.002313301915918264 0)
(0.9980771671116414 0.006754397798267411 -1.868285887311736e-20)
(1.251711249693081 0.03464492844754773 -2.317501356485531e-19)
(1.063868290249603 0.018395683096581 6.153574768403104e-20)
(0.9897762833497497 0.008343771136963227 0)
(1.019465414981702 -0.01090561456850885 2.388498446221377e-20)
(1.106788751761104 -0.000499037518286389 -1.201370017686553e-19)
(1.061668058948216 0.03107989010333338 0)
(-0.06711173838290171 -0.01004894374717639 6.992186186661014e-20)
(1.154474873766788 -0.05133274459044187 -1.920952143384592e-19)
(1.004123317563056 -0.008748287339203766 -2.625314339876093e-20)
(1.182980273560056 0.06789735967670475 -1.229230023552274e-19)
(0.9982929307189287 -0.01022112991140319 2.986349606462354e-20)
(1.083954158853853 -0.005555107370837735 0)
(1.243019021608085 0.09804943794140721 0)
(0.6960201434714833 0.003201380483038796 -7.50477362202615e-20)
(0.990176690977658 -0.01458225356925022 -3.110985666144662e-20)
(1.459979813668467 -0.01657636576807799 4.506096609729061e-19)
(1.060609466790577 0.007559290927942057 -6.818131356718034e-20)
(1.366924081168968 0.09927125111937504 2.932190452255854e-19)
(1.054727681243562 0.006814665379662701 -1.848324850233936e-22)
(1.081253727043275 -0.01402384164537276 -5.331104205516745e-22)
(1.164434262211442 -0.2355999021381921 0)
(1.02227826210273 -0.01430410435474677 0)
(1.017680442480106 0.01750769686457295 -3.146678003895932e-20)
(1.386544313708718 0.3497692671989914 4.153187341892193e-19)
(1.09695938784504 -0.0420405517046357 9.28785346838439e-20)
(1.045672462032626 0.2099410489536809 2.539772365373226e-19)
(1.125537330588992 -0.06257458036205427 1.150478907600947e-19)
(0.9221196606840474 0.005152850276423193 0)
(0.975519828059021 0.01857211308804435 0)
(1.004109688692457 -0.04891385149976482 2.673592564449166e-21)
(1.010830400096796 -0.01299759520741276 7.396807020578525e-21)
(1.03051037713514 0.02571235660884768 1.405100522801191e-20)
(1.529283308605914 0.03773135387337039 3.284897423658771e-19)
(1.28997663068933 0.07207439273862642 5.470902182553947e-19)
(1.07254894175291 0.002909397265170905 -9.266151236443831e-20)
(1.200345015927471 -0.09577018159720038 0)
(1.033783892557018 0.001606940817050282 1.34992360272046e-19)
(1.163520871356645 0.02231512801144838 -3.233381022731748e-19)
(1.001453814467122 0.03231760249426237 0)
(0.9996284271498342 0.002010244943382943 0)
(1.044376786042641 -0.0002438867528117221 7.688568507213639e-20)
(1.207939918360767 0.106319735452298 4.066483625842535e-19)
(1.011068651758844 0.006964089923794253 0)
(1.090352892186248 -0.07173791503594154 -1.054293095202958e-19)
(1.149040031309144 0.03716277964564119 0)
(1.208877364870869 0.09488397549580317 -1.92428840993943e-19)
(1.108025573940957 -0.02852511706307518 -7.612621139402275e-20)
(1.027712680650798 0.01152896327180265 0)
(1.085339820431725 -0.004682298082264205 0)
(1.019702404025021 0.02547747341204437 8.168600066306788e-20)
(1.073366368946058 0.0532071686422085 -9.240208910069218e-21)
(1.103738217319792 -0.004309862392229985 6.210487733259802e-20)
(1.108782102771863 -0.09753975278084712 1.54402404714805e-19)
(0.9595547569358621 -0.001031025748408827 0)
(1.066506018177861 0.03129720429747323 3.871862815001336e-20)
(1.168468741909024 -0.07576909238966793 2.347549529238947e-19)
(1.052858908213402 0.04454357142457609 -2.924283185693214e-20)
(1.022586965688486 0.06737546724249961 3.750651842150429e-20)
(1.090680151705386 0.02618690986624024 0)
(1.012304341030642 0.01740869719982161 0)
(1.02898332610926 0.009444603882902372 7.92528733813328e-20)
(0.9487277014688412 -0.03332799057021787 0)
(1.05318994001878 -0.005703308075802347 -7.938527707537134e-21)
(1.341072142295908 0.06070355696198396 -1.59724678159344e-19)
(1.07998744482141 -0.01330758983396823 2.572383049232663e-20)
(0.7441003566078623 -0.001781493286093967 0)
(0.5336488248972704 0.1555276423798439 -8.166341473976575e-20)
(0.705919843675028 -0.002540367518084329 0)
(0.699092523973488 0.01466515046880333 0)
(1.077735448651891 0.003520201910857294 -6.813651950093367e-22)
(0.990632721638629 0.01448991798158835 0)
(1.279217448467529 0.1233016880823693 2.474066949059257e-19)
(1.012329537126601 -0.02788638886255264 -7.92249572866945e-21)
(1.040667087703842 0.02210964904439267 1.508510068451894e-21)
(1.058452962749328 -0.01191805556395447 0)
(1.126481404898186 -0.009222403138640561 -4.950241653500856e-20)
(1.255891680332309 0.1361323223421199 -2.196493260904838e-19)
(1.089027469283012 -0.01119632813483619 -8.480337252269174e-20)
(1.069897909076273 0.0255849106386512 -1.105901091688132e-19)
(1.040802961636421 0.04671575803755852 6.85042068169309e-20)
(1.022338385409108 -0.003651014902716535 -3.441939174398795e-20)
(1.061316666083344 0.02353372259002106 6.114655908909719e-21)
(1.130716731813248 -0.006003988799076084 1.08120629740156e-20)
(1.041071406352861 -0.01415846160358683 -4.718550387339285e-22)
(1.087774028533147 0.03482362206807797 0)
(1.028449999046662 0.01327680883689676 0)
(0.7756948739646755 -0.05877513196168735 -1.840635622012137e-19)
(1.030169329905252 -0.001912988940536656 -6.942940793249887e-20)
(1.135090901650749 -0.002911218229429878 -1.317378032027882e-20)
(0.7035102787143226 0.006567564879869525 7.43520497541967e-20)
(1.175624055924362 0.02030203377486495 -1.907594794779157e-19)
(1.12646037268316 -0.00131378427444516 5.661354340505802e-21)
(1.129003276428912 -0.01006286018024261 3.483400118637084e-20)
(1.000941599212032 -0.002957995218687332 -7.6399364489527e-20)
(1.095495730584083 -0.06763377647876297 0)
(0.9846118967779418 -0.0009425614830657405 0)
(1.058006477285185 0.007086546937911426 0)
(1.00553399079079 0.1884350439732526 -2.474987118976435e-19)
(0.7794508373275099 0.01240677491981566 0)
(0.8568692702317662 0.1014615834080872 -8.451672668678784e-20)
(0.08416624290384062 0.04214819515928439 -3.071287731295728e-19)
(1.173501974238243 -0.03035605412886142 -2.221219918608973e-20)
(0.6713106797546203 -0.007330476840938713 2.433097368321016e-20)
(1.168849333186102 -0.1055212271113119 6.97697043882949e-20)
(1.125327691552217 -0.00576044065434277 -6.104741790833885e-21)
(1.156066062999536 -0.04911737572640656 2.158492153606907e-20)
(0.09933115584635752 -0.2072065076898795 0)
(0.2647063289247202 0.08788578148427313 0)
(1.252293717997878 0.1125934410194161 1.9285567402883e-19)
(1.021542895330711 0.0198359714482892 0)
(0.7376828320268514 -0.006331159130129304 0)
(1.075226612911088 -0.01193204972012229 2.69209792734918e-20)
(0.9751472618044441 0.002789759153914142 0)
(1.28681074891989 0.1308660707025752 -1.543520881304184e-19)
(1.057474605302269 0.01126906670764195 0)
(0.9932404333502555 -0.008101543372627248 0)
(1.065165409673831 0.008085294841426042 0)
(1.006177597150191 0.0208190339867334 1.765637815392835e-20)
(0.926140989515161 0.00951435260288758 1.096127141403278e-20)
(1.176677181054331 -0.1993132995655155 0)
(1.005115745358084 -0.005214863028340782 7.761678301078437e-20)
(1.059172541811038 0.006259048018287644 0)
(0.7746293018930189 -0.003327609182310093 0)
(1.215691503192127 0.0289960217508252 1.672013450223982e-20)
(0.705053343731057 0.001317979068202618 0)
(1.434795107562924 0.09016425559789702 -5.340761762730346e-20)
(0.9938431601418686 -0.006877042435462692 1.689810130378831e-20)
(1.275000220902119 -0.001137671520314795 -2.921025708773146e-19)
(1.059851407039532 0.008752883942457114 1.394319707159384e-19)
(1.000900835054858 -0.01361337350405649 0)
(1.218698198420639 -0.1519531550329944 2.034716896629919e-19)
(0.7331868295871531 0.01379277056967024 0)
(1.098176180451917 -0.005158855297447873 0)
(1.151344635032956 0.06664053635154864 2.031624537336255e-20)
(1.006965014815553 -0.007271642204999802 -3.021187641646775e-20)
(1.119863963417673 0.05086874577565934 -1.757172069968062e-19)
(0.126166486584902 -0.08268304297133924 0)
(1.072422470079936 0.03718266418321749 0)
(0.6615845180035916 -0.002923500189190907 -6.839044013962247e-22)
(1.012119102032404 -0.01954509157728632 9.727830210649099e-20)
(1.06168789326355 0.0006610120170286514 0)
(1.083529854387143 -0.1275846207590398 3.74853809481629e-19)
(1.002629565799592 -0.006214890122921803 -3.483328611797437e-21)
(1.001948678117913 -0.005072379736513918 9.992896634312001e-22)
(1.093954209428698 -0.00930264277521807 0)
(1.020709725998277 0.0204161505440427 -6.262028889452243e-20)
(1.10670633220271 -0.001654990528731413 6.684734482094465e-22)
(1.0738824545578 -0.01116842325731536 6.545250300858431e-20)
(1.085807397795011 0.02238919953920929 0)
(1.32977039587578 0.1663364655022928 0)
(1.002015458288991 0.0001670506826836776 4.415604286015921e-20)
(1.323441436576199 -0.1252759494636452 1.539249992642176e-19)
(0.04840301549330735 -0.1719055421663565 -2.559518417646148e-19)
(1.071343516721875 -0.005579025714225196 0)
(1.1180223211622 0.001683091710555625 1.230279364598906e-20)
(0.7269612420489423 0.01787456139497588 0)
(1.062834863245554 0.002407455456077186 0)
(0.8711734355326748 0.1672097047980767 4.791637908416129e-19)
(1.268562084884942 0.1270473218283466 1.850960963837861e-19)
(0.6542483370049973 -0.003110849562023981 -6.285183204119158e-20)
(1.042432525420914 -0.005487279533056805 -5.558611212200416e-21)
(1.054879251868122 -0.0002906913049613855 6.644292158495211e-20)
(1.361180819644462 0.1257965010412551 6.81393711486236e-19)
(1.335389993102847 0.2529229711136773 0)
(1.059401207381487 0.0009936786446477542 0)
(0.996702735461064 -0.007494568775039352 1.52718949930096e-20)
(0.9943621524545773 -0.01180894004440745 3.978257984576432e-21)
(1.383304722152641 0.2006151395870882 4.242374552404678e-19)
(0.6816587827755749 0.0006196337511957874 9.831782110023808e-20)
(1.005593732939665 -0.00203304398804743 -5.963075114884126e-20)
(1.098044733175684 0.01301188027197473 2.539674646652321e-20)
(0.6694720757824935 0.005014937480769295 0)
(1.06608690362 -0.01201969126451717 0)
(0.9930741480182227 0.1368516268818501 -1.189965602525082e-19)
(1.085126484039367 -0.00449164781050817 -2.438397160127183e-20)
(0.982084941368138 -3.213275155286838e-05 3.279585618272979e-20)
(0.9912102153697322 0.006026928706118738 0)
(0.6383130325922137 -0.001135056235933411 0)
(0.9768880287458335 -0.001225073589520173 0)
(0.642069046846745 -0.001502130860214307 2.715122754248141e-21)
(1.089595309862614 -0.05748662651672102 1.199423881698139e-19)
(1.112720177886432 -0.0003122495020146943 1.244846936888081e-21)
(0.9580062397955514 -0.000926631654003577 3.916544886699445e-20)
(1.015615026730433 0.01048217104901451 1.664847742174614e-20)
(1.065119534906853 0.004346766590785728 -2.27743144149028e-21)
(0.6347434654518296 0.008853696922897617 -3.64960892718722e-20)
(1.001754869020367 0.01054635119758753 -9.014962674233656e-22)
(1.035121042026182 0.01133033012760851 5.067740269938121e-21)
(0.9881651381868387 -0.01095056230622325 0)
(0.6100526817385516 -0.0004936431039058508 0)
(1.068650185052973 0.02274928975404775 0)
(1.016476174900881 -0.01547799684219554 1.059352956950408e-20)
(1.022426443040841 -0.005114048214643708 0)
(0.9914471581801766 0.01494994181069749 -9.379483920501559e-21)
(1.012168621265747 0.004227647789893641 0)
(1.126971089894405 -0.005571391501916404 -1.202199733668558e-20)
(0.0382126109124119 -0.1400467391733409 -4.483497275720174e-20)
(1.036628818748909 -0.01610893401411911 -7.488076207762134e-22)
(1.044022414056966 0.006327674730598357 0)
(1.084607647660577 0.06448121608240294 8.410313473681997e-20)
(0.9696581019899595 -0.001798253809314892 3.116820990784973e-20)
(1.02068984838786 0.01707954627554399 -2.373851592715579e-20)
(1.003002353794636 0.00157330151423023 2.494689218456189e-20)
(1.040958959046568 -0.004891893848779585 0)
(0.6409392100521935 -0.003995416538768285 0)
(1.025860210913394 0.02451382058488185 -7.281273031268725e-20)
(1.079483112113627 0.001136179540437935 4.793968103378934e-20)
(1.015895861182939 0.002257700115500347 0)
(0.9801463766285419 -0.003104593561010245 -1.92593180036863e-21)
(0.8755477661539681 0.02472917254219639 -1.29219479016172e-20)
(1.013998802041157 0.002908142433963631 -1.023668729663574e-20)
(1.027452730950756 0.00225277471881889 1.787166491548671e-20)
(0.9800378183360624 0.002062819768114218 0)
(1.002723691154223 0.009430955618394367 3.502623867672359e-20)
(1.106537281272494 -0.003684553402190557 0)
(0.9255592735351221 -0.001321226631638331 -3.366055978658132e-20)
(0.9608324740183538 0.008186314209088368 0)
(0.9159662488103488 0.2116812035195831 5.210735104708209e-20)
(1.010830895642955 0.0669483590950752 0)
(0.9927058409428907 0.003745978947487212 -2.300413670773847e-20)
(1.054236337477139 -0.05379671390091902 -2.828663937561365e-20)
(0.9910487539438901 -0.0007315722914258425 3.428437625524967e-20)
(1.012055708173212 0.002893823852522273 0)
(0.9783863367630321 -0.0006872626323265216 -3.200456283270439e-20)
(1.169127368957503 0.09827283684019926 -3.346948823597299e-19)
(1.069191872791564 -0.2643686110795976 0)
(0.9936858370188694 0.002000473209959152 -2.201293183614131e-20)
(0.9818556582144995 0.007611626985837849 5.044255654098416e-21)
(0.9616732067980227 0.004610380339893352 1.037967408807209e-21)
(0.745959910875352 -0.00108355748467621 0)
(1.117005430857873 -0.08146951358009979 0)
(1.007163118934969 0.003449067417909371 -2.15874778601307e-20)
(0.8984725287766695 0.001617649068435555 -9.958540375997461e-21)
(0.8556556453241081 0.01907340799378291 4.823481686503214e-21)
(1.012017023306446 0.003934842784882996 0)
(0.9488783524618496 0.003065166425013767 1.526109489849003e-20)
(1.005745758867601 -0.00025731521620395 -2.31126985338251e-20)
(1.020577200349605 0.001175468154129021 -2.580359289807355e-20)
(1.112105102035449 -0.00362710053160916 -4.923091268788856e-21)
(1.117249456179929 -0.0003767979353334351 0)
(1.013947032700337 -0.005403684109029484 0)
(1.022461148005613 0.003302508692219257 0)
(0.9474857886343335 0.003808444989273269 -2.174244669736499e-20)
(1.017874580157832 0.0134082142595388 5.334991336154133e-20)
(1.079188473626578 0.005356922736351345 -2.211793935822317e-20)
(1.038542694074919 0.001565827729285554 0)
(1.10583801952311 -0.006703713921947066 1.825966711865465e-21)
(0.9961789857456302 0.002428182295999767 -2.206234959842201e-20)
(0.9857364599885904 0.006727097751101639 0)
(1.012043514851587 0.002652433785506079 4.668488859655299e-20)
(1.366386114037294 -0.3141863404513405 -1.132592188089091e-18)
(1.122795476366251 -0.04464763684490614 -1.083432806085282e-19)
(0.9692793287877663 0.004265873659025443 4.850083544001902e-20)
(0.7807345070603082 0.01831049018025904 -3.180797101395952e-20)
(1.2204125667445 0.05283669010766357 0)
(1.222478867739024 -0.1364828212563009 -1.465858060762899e-19)
(1.078619539853314 0.006638411844005539 0)
(1.009002159782204 0.001799644940494442 2.225221759581013e-20)
(-0.1610145340775591 -0.1007770625401821 0)
(0.9939689334928805 -0.004654206209343134 0)
(1.0124397109981 -0.0231746300176238 4.554932855315152e-20)
(0.7061320109870473 -0.01943775458048405 0)
(1.096800391877015 -0.01492426868916639 2.162306203128717e-21)
(1.043516775343081 -0.009988600622534229 1.68420585369673e-20)
(0.6331139061871518 0.004162078868437037 0)
(1.448202663660411 -0.1221524195867769 0)
(0.9869129916637178 0.001514696446499584 -1.086165033957731e-20)
(1.069747019509078 -0.01495163516633204 0)
(1.038069053940924 0.0004465479090376978 2.165595739004427e-20)
(1.084897342151837 0.003560038025421471 0)
(1.008685167895504 0.004803494365287546 -1.065820918734739e-21)
(1.006042140605486 0.002963209598162066 0)
(1.014449076583031 -0.01483199025241895 6.296322118152992e-22)
(1.003231679990393 -0.02059713150086814 0)
(1.033656592091704 0.00597208673338223 1.758512597820368e-20)
(-0.2000422382642104 0.04051510253176621 2.650664941462508e-19)
(0.8158466156130576 0.03191707990356866 5.325920173943759e-20)
(1.005688351329082 0.002074375214472114 0)
(1.132177463877219 0.02451767545169963 -1.245793525108746e-20)
(1.120511992905888 0.02004538674783006 8.709853513123626e-21)
(1.054148130643871 -0.01313086102139014 -1.276818974408071e-19)
(0.998785368758884 0.01035188223813369 1.213145425079894e-21)
(1.078915273422316 0.006646023749920767 0)
(1.18514648989669 0.05282380169738114 0)
(0.835393082835285 -0.07566801517157701 4.591255901227186e-19)
(1.101849710852336 -0.01068323367532962 0)
(1.032486322060508 0.007547903197556616 -7.407208342305016e-21)
(1.042668397996001 0.005203076100106748 6.136784962572167e-21)
(1.052822052106155 -0.06180558670608115 -7.496291236774025e-21)
(1.140158086671092 -0.001217575069899598 1.665920183995663e-19)
(1.081902181888363 -0.007624319138868221 0)
(0.9950909418637536 0.001253150658123142 0)
(0.9961697409487863 -0.02425995418922027 -2.260955599932675e-21)
(0.9910784814391173 0.002558782112871366 0)
(1.029695179485739 -0.03866908981619349 6.360291424410521e-20)
(1.294039326136043 -0.09304943776504325 0)
(1.04742880547946 -0.01496171673162191 -9.127148733449489e-22)
(0.9861537305501368 0.01692917888624259 -8.490635988978861e-20)
(1.034755265148621 0.04081974904614308 -2.423843852384898e-21)
(-0.08974119322233041 0.157070977177649 -1.62755302706112e-19)
(-0.063401659591166 -0.2964071874573163 -1.403018366178834e-19)
(0.8726575989740762 0.1326988120931353 0)
(0.2952313555739092 -0.009982598327826426 -3.190943560192708e-19)
(1.01104802304219 -0.01322636906255054 -1.620859875639769e-20)
(1.063888173001778 0.002624314404028154 -2.11959117951894e-20)
(0.9926893374137155 -0.01851191636946014 2.879317614683637e-20)
(1.021497819126358 -0.0281552463359575 2.497787551958135e-21)
(1.008590719912544 -0.03203719141442284 -6.531731738738231e-20)
(0.9887338697181879 0.004841337316822329 -3.468455460493889e-20)
(0.9931093792201821 0.004444129211174197 0)
(1.025185018614152 -0.001949626900030572 -3.587119016857685e-21)
(1.937331419679427 -0.1551886772201825 1.07805788000555e-18)
(1.049154957538864 -0.009628697328186102 0)
(0.9953473273607841 0.007820006489512522 1.55103906700581e-20)
(1.00281265865656 -0.0001234876326928127 4.086854343634372e-20)
(1.168956575606178 0.1324078904619754 0)
(0.9996718573386021 -0.003851570937715717 1.976497251877739e-21)
(0.9490356820600891 -0.003353245943162224 0)
(1.037841414922208 0.04175571440888786 0)
(1.301913187603647 0.1657997257315007 2.302639491703589e-19)
(1.086076503359648 -0.01036381901171478 2.258316280751428e-20)
(1.018706037778371 0.03143718569811145 4.725602200739631e-20)
(1.086019941820237 -0.01094215985479784 -2.179572301141669e-20)
(1.048144152371878 -0.004124574025886082 -1.85055721542034e-21)
(-0.3840953067090537 -0.04269253826261096 0)
(0.9982273475918398 0.0144384872682918 0)
(0.1090028277527116 0.05918950627360667 -8.492275238047782e-20)
(1.006661669053347 0.02282446518575956 -4.174395780275061e-20)
(0.9926359126851438 -0.002302366346219967 0)
(1.000643095532478 0.005876502385149066 -5.077497136027035e-21)
(1.081516190943765 -0.04220226797797075 0)
(0.9957953973136402 -0.01710713589048466 -7.692042122627802e-21)
(1.091334526135964 -0.05468370824330707 0)
(1.442986130474206 0.1795216725744113 0)
(1.054183477719272 -0.01193625568061615 0)
(0.9906126365766915 -0.02254666234135067 -3.868960956291486e-20)
(0.9872749036962973 -0.04427158060325932 -2.235164463460649e-21)
(1.017694827240748 -0.0167566858217572 -1.688270365302273e-20)
(0.9975366369240101 0.01691291546219756 -5.687766238144901e-20)
(0.9950224173669934 0.01038606631771436 -1.511592209237758e-20)
(0.9935686118682781 -0.0272328836502682 0)
(1.003220609657883 0.0252938315323115 1.975599749462887e-20)
(1.04730542052035 -0.0427776925863343 0)
(1.110924615653434 -0.03565169682905653 2.637740562444918e-19)
(0.9955480358085276 0.01736018542398775 4.691997004548015e-20)
(0.6151143140412396 -0.008667476765410378 0)
(1.135500903983679 0.1340363281975092 -5.33289894808031e-21)
(0.8566291309285157 -0.1048785581069774 0)
(1.138378009967115 0.07327732133918585 -2.679846357254127e-19)
(1.315967673632036 -0.3883349148430845 1.300174340282203e-19)
(1.074571635903793 0.06078830558821954 -1.324245352554403e-20)
(1.009439344617917 -0.03102467097743771 0)
(0.9557550474491295 -0.2155568736104714 0)
(0.4995744036997519 0.1409851976682536 0)
(1.013155703033048 0.009738880965185794 1.236349628584491e-21)
(0.691811947129545 -0.02640392626880641 0)
(0.9987462322879259 0.0183237077819171 3.593608812103306e-20)
(1.021888239308291 -0.004097472341104203 -2.788430569158239e-20)
(1.079127060755281 -0.008091734837605474 2.816362655669029e-21)
(1.038638417160169 -0.00808298477514466 3.38971144594059e-20)
(1.042464655331742 0.01116091886327254 0)
(1.061475502371384 0.02984365644146333 -1.002591735837926e-20)
(1.050414205223585 0.03445876200685984 -1.835175734894033e-20)
(0.9825363051722498 -0.02214839005839142 0)
(0.6249446513911749 0.005124822138096257 9.18283484347436e-20)
(0.8941650332003451 -0.005869866208766709 -8.857935030314681e-20)
(0.9093719655911486 0.005338413504939019 1.442498320616764e-20)
(0.6295535699941412 -0.006382084038563266 1.404852450789292e-20)
(0.9782843207729893 0.001022360103380617 2.633298303844714e-20)
(1.004461753429703 -0.01753860623147929 -3.608494178952708e-20)
(0.968773533962578 -0.02081852027744737 -3.64324420612008e-20)
(1.085489044033916 0.001521449966701269 0)
(1.019664383944908 0.004326821389975867 1.049267521011075e-20)
(1.132722937183281 0.04890356014393687 1.296933792161734e-19)
(1.033885563162174 0.04072035788018433 0)
(1.022199133192997 0.002563511205956579 0)
(1.58457341428168 -0.1665886375994981 4.422068409990628e-19)
(1.043616857239455 -0.03789871358595952 0)
(1.018173856118449 0.006474834336917291 -3.797312794498333e-20)
(1.088364683633184 -0.002579829501358649 0)
(0.4793254218943157 -0.03567889068627608 0)
(-0.0280788082412484 0.01909765429022696 0)
(0.9902025498670616 -0.02428625980019219 1.212164237886866e-20)
(1.301153326741721 -0.09495117711981495 3.770182685577148e-19)
(1.035913528509489 0.03765344105735426 0)
(1.02233720158522 0.0033053735398976 -2.261654219402513e-20)
(0.9625936919973378 -0.1639498458767427 3.310204512646646e-21)
(1.252943895854413 0.07842353565564997 0)
(0.5977101240738526 0.7303134780438699 0)
(1.31207960665525 0.1523568497649971 1.123725892011325e-19)
(1.678189962470704 -0.02431536738280955 0)
(1.057779771785869 0.1075299762154431 0)
(0.7131264666552874 -0.01785316458383624 2.623611599888872e-21)
(1.05297751131985 0.04584797786693157 0)
(0.7243584706732569 0.1087195713461184 1.159997606791577e-19)
(0.9967732052274583 -0.0165141447452489 3.568214628573116e-19)
(1.033537508904204 -0.04160645368226002 2.736620809171347e-20)
(-0.378135879862061 -0.003211398233347327 0)
(1.071710793470262 -0.01641179021164946 0)
(1.095187600699505 -0.009022614416912496 0)
(0.6484698356911891 -0.5031629185469179 -2.473851392623503e-19)
(0.9915851809863283 -0.001435704623845914 0)
(1.091983276180679 -0.02145772012866517 3.841998061045015e-22)
(1.187822641502934 0.1215341521059554 -1.985017983009173e-19)
(1.088804236651761 -0.04293360562862398 0)
(1.00538350949206 -0.02140891062117983 0)
(0.8114455359585946 -0.1829522953969471 -1.714801361870201e-19)
(0.8941093151397136 -0.1294538408381656 1.563998791590365e-19)
(1.027342891919549 0.01212989858004373 -2.272294772094248e-20)
(1.023110793729814 -0.009121728597433477 -4.628593770053446e-20)
(0.8750966543491955 0.01192284552588271 -2.061318777718115e-22)
(1.505810324935257 -0.1929438463014758 0)
(1.302401401897855 0.1214533402589952 3.172350977663343e-20)
(1.245679935734327 -0.07506268523112229 -3.028844321083452e-21)
(1.095793786210157 -0.01849022874770105 -3.827824961989451e-20)
(1.041743128768674 -0.01176306785584613 2.413743857019497e-20)
(1.092826529223411 -0.03911615692199664 9.051679274991037e-20)
(1.032082338683171 0.01971590427327182 0)
(1.044235437263206 -0.03497710717392951 0)
(1.115914414978575 -0.008991162636690784 0)
(1.087528632406168 -0.02885293262478263 0)
(0.9978923229663085 0.01114426944970515 0)
(1.148159864546524 0.0769831685342165 9.512764515796862e-20)
(1.340951359532563 -0.1484690018070398 0)
(1.037307871052904 -0.02149358840142513 -1.836989667698565e-22)
(1.05301396357801 0.05090963421790368 0)
(1.010098732365692 0.0147244747741533 -3.994636951756504e-20)
(1.033847019226231 -0.00787269084805004 9.044220101756548e-21)
(1.088952207547463 0.01338999759985208 -3.276819281774997e-20)
(1.085315844900567 -0.0291246641373093 0)
(1.074665030358473 0.0003571047346284374 0)
(1.108444433248912 0.09493576713740851 -1.42907184566034e-18)
(0.9354525018774178 -0.1497824202715879 -7.061665926590705e-20)
(1.169638024547841 0.1061053358346094 1.105200112171822e-19)
(-0.4843802264395646 0.01198847584632375 -2.922269917507331e-19)
(1.019136300669965 0.02859738377913271 -8.914159455901459e-20)
(1.00414081668993 -0.001464797221715974 0)
(-0.2968592953126422 0.03765986729613531 3.558531018687632e-19)
(-0.05205304772282392 0.3088175493254808 7.704032538148379e-21)
(0.9952294621282199 -0.006289440293575833 9.894022442614323e-20)
(0.191207664618218 -0.03949357614301235 1.440599136089177e-19)
(1.094438816809345 0.0808260366607178 1.50611066597087e-20)
(0.0941238493522798 -0.1096395776563378 -5.509444620697485e-20)
(1.107954009644025 0.003037416068867659 0)
(1.104126215524517 0.2593002503119827 0)
(1.021790975227455 0.0218050103087907 -1.745281346955797e-20)
(1.074475404723045 0.05481848184053398 0)
(1.026378911488868 0.02686865107383401 -9.655901238828183e-21)
(1.26341367184345 -0.5488360212015118 8.059545248094277e-19)
(-0.103733672600258 -0.1963168245489829 2.219956545028264e-19)
(1.296540373571854 0.1184792659213932 -6.358924417549663e-19)
(1.122553763904967 -0.002786496327523938 0)
(1.128704468795531 0.09459227156209245 0)
(0.5294439836262821 0.08359440300169785 2.572693613010126e-19)
(1.023490175686444 -0.02097249899195277 9.273834936154349e-20)
(1.005888958913322 -0.02401263707704933 0)
(1.211189033729179 0.2710828840405394 -9.51670891389308e-20)
(1.259409464475088 0.1401909173443787 -1.614523189155597e-19)
(1.026642710596519 0.002985059484020216 1.524427352034692e-20)
(1.301302898348779 -0.08449124142035538 -5.030742907716122e-19)
(0.2926373951279748 -0.01333436499988537 2.591305393852015e-19)
(0.8255967268440007 -0.144836822200158 6.632432242875325e-19)
(1.052696663797579 0.05682652464167241 1.049488676277171e-19)
(1.040770784856212 -0.006457809444815272 1.725488192285153e-21)
(1.001503523777907 0.01998807887568484 3.012087445280222e-20)