/*--------------------------------*- C++ -*----------------------------------*\
| =========                 |                                                 |
| \\      /  F ield         | OpenFOAM: The Open Source CFD Toolbox           |
|  \\    /   O peration     | Version:  2412                                  |
|   \\  /    A nd           | Website:  www.openfoam.com                      |
|    \\/     M anipulation  |                                                 |
\*---------------------------------------------------------------------------*/
FoamFile
{
    version     2.0;
    format      ascii;
    arch        "LSB;label=32;scalar=64";
    class       volScalarField;
    location    "7";
    object      p;
}
// * * * * * * * * * * * * * * * * * * * * * * * * * * * * * * * * * * * * * //

dimensions      [0 2 -2 0 0 0 0];

internalField   nonuniform List<scalar> 
808
(
0.0932735
0.0061855
0.0336411
0.0925845
-0.266932
0.00339324
0.00532411
0.0189248
-0.163696
-0.0547524
0.0371677
-0.181036
0.0185963
-0.000894432
-0.32303
0.0189594
-0.337366
0.0167114
0.0310605
-0.0144615
0.0435752
0.356605
0.0511043
-0.0242842
0.434259
-0.201399
-0.0923343
0.0103408
0.0167351
0.0118798
0.0165943
-0.0069042
0.022487
0.0108504
-0.113461
0.599749
0.00151164
0.0154027
0.0117497
0.0199704
-0.0825699
-0.0908431
0.0188079
0.0246922
-0.212739
0.0684674
0.0145852
-0.0240918
0.00907704
-0.204462
0.0118834
-0.00885294
0.0281658
0.00323903
-0.106514
0.000943488
0.00531992
0.0368651
-0.0534641
-0.00829861
-0.331903
-0.0295025
0.0330199
-0.215735
0.0274653
0.0320058
-0.317034
0.0236445
0.0315517
-0.317523
0.0119453
-0.353891
0.0183514
0.0220671
0.153051
0.0154818
-0.032758
-0.0896907
0.00560103
0.293255
-0.139562
0.0170363
0.0202637
0.245022
0.0224209
-0.039631
-0.396639
-0.126179
0.0165874
-0.226872
0.0141322
-0.134109
0.238095
0.140591
0.0276064
-0.314445
0.0219809
-0.142541
-0.140104
-0.283201
0.00651548
-0.0218653
0.0253991
-0.0302526
-0.11357
0.0398768
-0.248285
0.016853
-0.00395421
-0.00418816
-0.0761085
0.31265
0.00224778
0.0417583
0.0158076
0.426347
-0.000540735
-0.304237
0.0229356
0.0406629
-0.302081
0.0246923
-0.00981732
0.0365696
0.0981706
-0.0705384
0.082462
0.0460693
0.000194605
0.0513992
-0.356772
0.0186663
-0.0712346
0.105026
0.0203284
-0.00250214
0.0501746
0.00911916
0.000960556
-0.0105534
-0.316252
0.0209493
0.0399418
0.00708886
-0.0514622
0.0582904
0.07173
0.132856
-0.0507858
0.0113889
0.00350747
0.321542
0.0211783
0.511732
-0.313488
-0.119809
0.00684829
-0.248605
0.0427494
-0.138814
-0.342374
-0.312504
-0.344406
0.00151959
0.0435338
0.0200174
0.00949393
-0.360329
0.0126106
0.0293224
0.0250757
0.134497
0.0621261
0.0898292
0.012722
0.0430879
0.0562483
-0.189601
0.0243238
-0.382544
0.0286442
-0.162092
0.0033464
0.235711
-0.349563
0.10042
0.00830148
-0.180544
0.0217202
-0.132206
-0.310407
-0.0890897
0.0200302
0.0573986
0.00636188
-0.299105
0.0174375
0.0292491
0.00881392
0.0600624
0.0435954
0.0205067
0.0165227
-0.356102
0.352055
-0.290231
-0.33907
0.00512682
0.0288273
0.00286365
0.00945497
-0.433125
-0.353358
0.0161232
0.00579776
0.0260663
-0.363333
-0.0567302
0.00797093
0.0301718
0.00208401
-0.106518
0.0239704
0.0259381
0.00928586
0.0166125
0.111252
-0.369364
0.0392293
0.0170646
0.0974283
0.0201228
0.0215192
0.0138559
-0.120584
0.0232794
0.00708937
0.000169415
0.00456734
0.0139669
0.00387011
-0.000227805
0.00221475
0.00586411
0.00195255
0.000284698
0.00260534
0.00276384
0.00154567
0.0473673
-0.350549
0.00547002
0.000101326
-0.124101
0.00510878
-0.00142544
0.0235283
0.000889407
0.026252
0.103337
0.0326237
0.0107596
0.0122013
0.0711742
0.0213801
0.0163686
0.0162156
0.0407905
0.0153431
0.0436197
0.0276958
-0.431699
0.25598
0.0153854
-0.0661221
0.0166837
0.015719
0.0118998
-0.259425
0.245168
0.0243334
0.027795
0.0165048
0.0602436
-0.16853
0.0195332
0.0590452
0.0832759
0.0271992
0.0472218
0.0235138
0.0293651
0.0184889
0.023008
0.032537
0.0221849
0.0331726
0.0384257
0.0297754
0.027788
0.0154166
0.0203882
0.0232165
0.0187422
-0.538523
-0.113819
0.0380939
0.0897196
-0.213365
-0.342545
0.0271932
0.0231425
-0.348569
0.100122
0.127845
0.00845573
0.0144153
0.0359215
0.00904701
-0.253698
0.0280567
0.0011464
0.0266627
0.0172433
0.0217301
0.0275243
0.0429194
-0.00784629
0.0226737
-0.31317
0.0737063
0.0286587
0.0554059
0.0657947
-0.00120723
0.211461
0.0226488
-0.195056
0.520992
0.057459
0.00203226
0.0264124
-0.0829754
-0.0688015
0.0382153
0.0279356
0.00432535
0.0302102
-0.0607525
-0.271132
0.0436545
0.0906187
-0.0481474
-0.30252
-0.344343
-0.378295
-0.351605
0.0586318
0.0269686
0.0249153
0.0142261
-0.0295793
0.0102841
0.0289274
0.00265346
-0.532992
0.0570538
0.0298914
0.0266659
-0.188419
0.0765506
0.00919213
0.0842607
-0.384018
0.0490528
-0.0177337
0.0474603
0.0777373
-0.318001
0.0278097
-0.323413
0.00632394
0.0962746
0.0264784
0.00601567
0.0277117
-0.0120675
-0.373136
-0.00156604
0.0139276
0.0417448
0.0312786
-0.00589571
0.0234135
-0.00509197
-0.000924778
-0.00426885
0.00702481
0.00807257
0.00546562
-0.306043
-0.113015
0.0427778
-0.0410872
-0.0975284
-0.0215365
0.395718
-0.187236
0.00803936
0.0190168
0.0171924
0.0302869
0.0300039
0.0765647
-0.0237507
0.0398469
-0.0712558
-0.00553564
-0.00124622
-0.00461067
-0.00456819
0.00306387
0.0214895
0.0953166
0.112182
0.0171052
0.00932522
0.00108431
-0.0457494
0.0139664
-0.406578
0.0593818
0.0423651
0.0137979
-0.0994025
-0.359631
-0.0181929
-0.117643
-0.0201056
0.0251504
-0.291698
-0.273591
0.213082
-0.347989
-0.483584
-0.101419
0.0359606
-0.040571
-0.351714
0.326196
-0.0355579
-0.344744
-0.00218643
0.0536403
0.54113
0.00930913
-0.0182915
0.0274512
-0.0240825
-0.0157973
-0.349151
-0.310009
0.0465974
0.0373216
0.0731992
-0.292007
-0.345212
-0.249584
0.0129172
0.0412602
0.0745162
-0.0330172
-0.024268
0.0666285
0.0371906
0.0180614
-0.199304
-0.312225
0.0345351
-0.0596261
0.0104702
-0.00747685
0.0525964
-0.0689144
0.0167303
-0.496152
0.424609
-0.269571
-0.324079
-0.0310703
0.0137649
-0.318426
-0.297991
0.0960793
-0.365411
-0.125747
0.839726
0.00295619
-0.38668
-0.00246564
-0.0425309
0.0106986
-0.485161
-0.331769
-0.340667
0.0111305
-0.172186
-0.39152
-0.024528
-0.0307908
0.0841876
-0.350954
0.0114762
-0.531007
-0.337653
-0.396969
0.0141845
0.0116619
0.00184775
0.0865462
0.098983
-0.0285435
-0.311503
0.276103
0.0718728
0.0140189
-0.470004
-0.528015
-0.365577
0.0310168
-0.379815
0.0678448
0.0754611
0.0491121
-0.201034
-0.262776
0.0132672
-0.331586
-0.305187
0.007691
-0.0212014
-0.316732
-0.0181095
0.0176302
-0.411614
-0.372794
-0.116716
0.0826546
0.0215174
-0.359882
-0.310435
-0.333019
-0.100301
0.0223125
0.0827652
0.00513136
-0.369681
-0.308042
0.0828142
0.0240875
-0.0973895
0.02794
0.0355656
-0.343558
0.0214819
-0.300134
0.0379966
-0.374933
0.0575073
0.0067015
-0.375719
-0.466184
-0.000423363
-0.500537
-0.49157
0.0332803
-0.0858841
-0.301233
0.00556812
-0.319891
0.0268781
0.0622032
0.0355623
-0.371774
0.0508334
0.0744741
-0.463
0.0173278
-0.353565
0.0310788
-0.344205
-0.519726
0.0675592
0.255911
0.420473
0.00813911
0.00357944
0.00271637
-0.372234
0.624944
0.00633344
-0.231328
0.0219935
-0.101049
0.0530194
0.468833
-0.380869
-0.0540202
-0.0579424
0.0310996
0.0100644
-0.462707
-0.301226
-0.367606
-0.363153
-0.306039
-0.00837398
-0.388174
0.0465912
-0.280471
-0.324346
0.499887
0.575812
-0.331022
0.0795302
-0.305393
-0.0397366
0.00319261
0.394354
0.00304499
-0.351711
0.0547182
-0.518939
-0.0382613
-0.209985
-0.0345991
-0.323656
-0.287829
0.00561955
0.00255852
-0.352394
0.416211
0.659061
-0.370082
-0.317909
-0.36647
-0.0712041
-0.316727
-0.305283
-0.203847
-0.351814
0.742488
-0.350313
0.715989
-0.445238
0.300949
-0.346341
-0.01106
0.159297
-0.51036
0.189661
-0.294196
-0.322585
-0.35038
0.854779
-0.30819
0.184403
0.11765
0.614999
0.0978125
-0.395347
-0.29664
-0.173562
0.0113691
0.0724557
0.489714
0.0127875
-0.036268
-0.306539
0.105123
-0.156055
-0.301173
0.0271747
-0.384497
-0.191474
-0.169072
-0.401568
-0.00458539
0.0771393
-0.00530199
0.0580998
0.0798347
-0.342455
-0.368593
-0.00236572
-0.00408296
-0.475746
-0.522718
0.162959
0.177488
0.0650011
0.656673
-0.114052
-0.370966
-0.394397
-0.30924
-0.0935459
0.0686332
0.747876
-0.46142
0.343194
-0.0131982
-0.437122
0.137804
-0.0888886
0.35418
-0.171897
0.00203582
-0.362387
-0.11212
0.161015
0.788251
0.30846
0.746685
-0.396181
-0.306621
-0.450534
0.152998
0.251825
0.0465394
0.36726
0.101874
0.474558
0.261436
0.012255
-0.222665
-0.00871746
-0.364662
0.864513
0.387351
0.6383
0.489819
-0.27874
-0.381837
-0.305951
-0.32729
0.034355
-0.437871
0.0687938
0.581684
-0.400414
0.00950361
-0.32525
0.170986
-0.33707
-0.378037
-0.16727
-0.297896
-0.364361
-0.36823
-0.371242
-0.135108
-0.451822
-0.16736
-0.36148
0.131094
0.625421
-0.233272
-0.352737
0.814189
-0.351243
0.255807
-0.24707
0.355811
0.0621791
-0.383463
-0.407423
0.431454
-0.309834
-0.332679
0.156499
-0.287263
-0.0220587
-0.308918
-0.131499
0.0232543
0.542934
0.758374
-0.309416
0.199524
-0.352085
0.803241
-0.0116795
-0.324426
-0.0230677
0.738414
0.191
-0.331963
-0.303957
0.426352
-0.223659
0.0227697
0.338345
0.237607
0.269735
-0.264298
-0.347837
0.6671
)
;

boundaryField
{
    FrontBack
    {
        type            empty;
    }
    Top
    {
        type            zeroGradient;
    }
    In
    {
        type            zeroGradient;
    }
    Bottom
    {
        type            zeroGradient;
    }
    Out
    {
        type            fixedValue;
        value           uniform 0;
    }
    circle
    {
        type            zeroGradient;
    }
}


// ************************************************************************* //
