/*--------------------------------*- C++ -*----------------------------------*\
| =========                 |                                                 |
| \\      /  F ield         | OpenFOAM: The Open Source CFD Toolbox           |
|  \\    /   O peration     | Version:  2412                                  |
|   \\  /    A nd           | Website:  www.openfoam.com                      |
|    \\/     M anipulation  |                                                 |
\*---------------------------------------------------------------------------*/
FoamFile
{
    version     2.0;
    format      ascii;
    arch        "LSB;label=32;scalar=64";
    class       surfaceScalarField;
    location    "7";
    object      phi;
}
// * * * * * * * * * * * * * * * * * * * * * * * * * * * * * * * * * * * * * //

dimensions      [0 3 -1 0 0 0 0];

oriented        oriented;

internalField   nonuniform List<scalar> 
1171
(
-0.944078
0.944078
0.761715
-1.06861
0.306898
-0.192393
-0.707709
0.900102
0.0559222
-0.0723552
-0.275883
0.348239
-0.761715
0.0684621
0.693253
0.888818
-0.21088
-0.677938
0.841578
-1.00016
0.158585
-0.353453
-0.0457238
0.399177
-0.0146145
0.610051
-0.595437
-0.487436
0.862299
-0.374863
-0.425809
0.999559
-0.157981
0.264915
0.0907339
-0.355649
1.00477
-0.0052078
0.320809
-0.0558944
1.01677
-0.012003
0.620944
-0.813337
-0.775781
0.599627
0.176154
0.255639
-0.743075
0.555317
-0.913823
0.358507
-1.07614
0.669735
0.406405
-0.645984
0.63137
0.0295744
-0.2508
0.221225
0.0146208
-0.643982
0.629361
0.463069
-0.508792
-0.870364
0.89708
-0.026716
1.02185
-0.00508162
0.899197
-1.08477
0.185575
1.02243
-0.000581827
-0.6981
-0.0776813
1.23547
-0.821989
-0.413477
0.152069
-0.0915966
-0.402111
0.493708
-0.272798
0.186253
0.0865452
-0.58787
-0.480743
0.990729
-0.0915323
0.0296375
0.820983
-0.85062
0.549584
0.685883
0.518455
0.0124259
0.450643
-0.780834
-0.124485
0.905319
0.533919
0.25309
-0.787009
-0.00329822
0.651893
-0.648595
-0.500608
-0.575531
-0.395973
-0.688798
0.0209749
0.251123
-0.272097
-0.929254
-0.00236024
0.931614
0.372041
0.0271367
0.818373
0.0704448
-0.59873
-0.0472544
0.0455899
-0.826424
0.0840914
0.882049
-0.966141
-0.404174
0.0239051
0.380269
-0.708761
-0.220493
-0.646386
0.730477
0.631894
0.230405
-0.583011
0.992701
-0.826752
-0.16595
-0.157312
0.0178778
0.139434
-0.457049
-0.0517431
-0.255265
0.887159
0.00720223
0.423739
-0.430941
-0.475462
1.00938
0.692622
-0.817106
0.396841
-0.0668704
-0.32997
0.908815
-0.908815
-0.850325
0.0446945
-0.320578
-0.679714
0.709351
-0.0392049
-0.148081
0.187286
0.859563
-0.0385801
1.00014
-0.747051
0.223403
-0.32145
0.0980477
0.914561
-0.0961876
-0.665505
-0.0430024
0.708508
0.149366
-0.231966
0.0826004
0.765384
-0.976264
-0.438588
0.309655
0.128933
0.660913
-0.646292
0.950474
-0.409418
-0.541056
0.554501
-0.694102
0.035679
0.658423
0.127551
0.640491
0.0574625
-0.697953
0.141412
-0.0967174
-0.5121
0.107925
0.0373353
-0.898985
0.86165
-0.553248
-0.751645
0.053545
0.498677
-0.048034
0.276249
-0.829323
0.553074
0.419013
0.580987
0.594958
-0.549368
-0.404043
0.000566484
0.403476
0.682229
0.226586
-0.681692
0.678393
0.0965656
0.833846
0.000852232
-0.666358
-0.754788
0.792123
0.597489
0.0872269
0.362173
-0.4494
-0.156689
0.55338
0.098513
0.93623
-0.863087
-0.0731431
0.629692
0.363009
-0.436074
0.675615
-0.588388
0.409014
0.146303
-0.0790691
-0.623209
-0.182659
0.805869
-0.16874
-0.740075
-0.610652
0.362035
0.248617
0.655227
-0.654374
0.309034
0.952561
0.0475796
-0.754788
-0.161419
0.00410689
0.692622
0.761143
-0.761143
0.84544
-0.823525
-0.021915
-0.450673
0.869686
-0.192715
-0.319385
0.754633
-0.663142
-0.0914907
-0.831475
0.208265
0.11732
-0.71605
0.817106
-0.973796
-0.219043
0.204407
0.0146366
0.139813
-0.955241
0.815427
0.550343
-0.0318886
-0.29525
0.595703
-0.300453
-0.73144
0.871254
-0.171525
0.663767
-0.799346
0.135578
0.970527
-0.573973
-0.396554
0.682074
-0.0667303
-0.0177057
0.0182432
-0.000537563
-0.798899
-0.788898
0.0811886
-0.679714
0.573836
-0.549931
0.152518
0.642009
-0.794527
0.776703
0.167375
0.49556
0.50444
-0.137237
-0.660779
0.798016
0.940018
-0.0037876
-0.682074
0.792123
0.183514
-0.434314
-0.0301026
0.00499067
0.0251119
0.675289
-0.439626
-0.235663
0.693253
-0.0192334
-0.12513
0.552691
0.122598
-0.0193927
0.000986237
0.0184064
0.00295217
-0.0206578
0.157306
-0.224176
-0.932668
-0.00267925
-0.140545
-0.0617375
0.0809943
0.754116
0.751664
-0.170677
0.706525
-0.554007
-0.166152
0.389555
0.683861
0.00939245
0.24107
-1.0646
-0.973796
0.324006
0.709351
-0.167671
0.0195893
-0.751437
0.951606
-0.200169
0.483193
-0.102924
0.794919
0.305898
0.312971
0.00783813
-0.684671
0.684671
0.239915
0.665404
-0.0340156
0.457754
0.459692
0.0284564
-0.058559
0.530925
0.0194182
-0.73144
0.557829
0.196804
0.00883217
0.00941106
-0.683861
0.184735
0.766871
-0.0112192
-0.771614
0.782833
0.75879
-0.825492
0.0667018
-0.776703
-0.0397214
0.0548686
-0.0151473
0.0861767
-0.124854
-0.10623
0.231084
-0.00942778
-0.0099649
0.709381
-0.7206
0.830016
0.0700862
-0.323982
-0.503579
0.82756
-0.000626273
0.000626273
0.204973
0.46332
0.631387
-1.09471
-0.168295
-0.564137
0.732432
-0.0183098
0.205596
0.383028
-0.233662
0.994566
-0.531245
0.68699
1.04613
-0.414744
0.190313
0.871254
0.713273
0.219718
0.677361
-0.740075
0.315329
-0.0363383
0.0207937
0.0155446
0.830853
0.000344954
-0.831198
-0.70127
0.700688
0.549327
-0.70127
-0.713273
0.700688
-0.0207787
0.853004
-0.022988
-0.682229
0.605178
0.0770509
0.522194
0.579574
-1.10177
0.477374
0.517192
0.555682
0.471111
-1.02679
0.524892
0.521238
0.605178
-0.528546
-0.456699
-0.575011
-0.526081
-0.157336
-0.00772837
0.00772837
0.513828
0.520655
-1.04674
0.700936
-0.338763
-0.93873
0.364756
-0.675016
0.454524
0.00590754
-0.856319
0.850411
0.456414
-0.0167006
0.847553
-0.970368
-0.878223
0.0519697
0.826254
0.492719
-0.316963
-0.175756
0.67623
-0.767762
0.899943
-0.852086
-0.0478576
-0.0143842
-0.848703
-0.157068
0.76311
-0.606042
-0.884217
0.869833
-0.785857
0.740639
0.0452185
-0.862561
0.0317771
0.830783
0.00439293
-0.0050192
0.422552
0.0704242
-0.884496
0.814072
-0.801823
0.664586
0.94381
0.0754122
-1.01922
0.0655869
-0.0271196
0.430596
-0.361376
0.0399253
0.874519
-0.868612
-0.792474
-0.874982
0.0262796
-0.107399
-0.872352
0.0202662
0.650279
0.0562464
0.0322178
0.460502
-0.820307
0.852084
0.541056
-0.873019
-0.808805
0.044199
-0.0293529
0.835617
-0.806264
-0.0219408
-0.821827
0.580971
0.17782
-0.0153104
0.862864
0.921802
0.889577
-0.869311
0.0481852
-0.0481852
-0.0936014
-0.306414
-0.0105497
0.334375
-0.0103687
0.293738
0.840923
0.00678303
-0.0162108
0.661346
0.338654
0.801458
-0.58787
-0.737658
-0.805919
-0.673972
0.673972
-0.207459
-0.113119
0.632342
-0.861599
0.229257
-0.499126
-0.55589
0.293933
-0.982731
-0.870576
0.822719
-0.82243
0.84871
0.659717
0.15467
-0.814387
-0.760701
-0.192965
0.822052
-0.629088
0.0296533
0.00262092
0.00448507
-0.00710599
-0.175056
-0.131357
0.926275
0.714051
-0.334232
-0.37982
0.538295
0.748671
-0.508755
0.0134294
-0.286227
0.0487157
0.745474
-0.79419
-0.323014
-0.12343
0.13421
-0.960383
0.129185
-0.706928
0.0907673
0.703903
-0.794671
-0.810366
0.103437
0.652932
-0.776362
0.234487
-0.359341
-0.745204
-0.0154964
0.369078
0.710057
-0.0344425
0.000392232
-0.000392232
-0.00674213
0.0118491
-0.0481874
-0.0196453
0.0264283
-0.688958
0.295425
0.722774
-0.774348
0.0515743
-0.643562
0.734329
0.760873
-0.107941
-0.653602
-0.156763
-1.07414
0.0208748
0.0273104
-0.640242
-0.81067
-0.801356
0.387879
-0.201277
0.268988
-0.067711
-0.581888
-0.0583538
0.525274
0.717268
-0.0547033
-0.00703421
0.975879
0.492232
0.202174
-0.694406
-0.537484
-0.0444039
-0.00999327
0.0126142
0.688327
-0.870986
0.00566512
-0.00566512
-0.69915
0.728026
-0.0288767
-0.505267
-0.125126
-0.669366
0.178888
0.619128
-0.0580312
-0.862331
-0.3993
0.305474
0.0938259
0.698196
-0.646622
0.312007
0.2676
-0.579607
-0.122343
-0.650556
-0.144115
-0.206918
-0.220412
0.465691
-0.517434
0.14296
0.755654
-0.898614
0.554501
-0.230992
0.0297146
0.144078
-0.36449
0.592262
-0.0922267
-0.500035
-0.287279
0.306989
-0.01971
0.541882
0.159055
0.110317
-0.311411
0.170052
0.141358
-0.124692
-0.0367265
-0.296315
-0.0193858
0.0812305
-0.0618447
0.816175
-0.41506
-0.0902065
0.553688
0.291371
-0.625602
0.562399
-0.562399
-0.269723
-0.570481
-0.252306
-0.570481
-0.631344
-0.843094
0.179952
-0.42561
0.77617
0.042331
0.158239
0.551818
0.104751
0.122357
0.00794745
-0.130304
-0.120136
0.605773
-0.916945
0.413366
-0.0546152
0.0951551
-0.0405399
-0.737028
-0.174686
-0.53869
0.740865
-0.518962
-0.0921387
-0.272351
-0.340339
-0.0808997
0.0808997
0.0530655
0.00180311
0.143232
0.232262
-0.700121
0.161431
-0.0338215
0.475525
0.524475
0.774903
0.0385373
0.0169963
-0.0555336
-0.289412
-0.572919
-0.538551
0.115221
-0.119894
0.00467266
-0.112476
-0.411611
-0.131341
0.750469
-0.561276
-0.175752
-0.0742609
0.0372886
0.199827
-0.612361
-0.199511
-0.201428
-0.0227488
-0.482017
0.43065
0.051367
-0.0448788
0.289125
-0.864656
-0.5218
0.630333
-0.836649
0.714305
0.430635
-0.0319209
0.0574486
-0.0255277
0.0877073
-0.635544
0.00719433
0.62835
-0.89722
0.643864
-0.737466
-0.0942261
0.00830749
-0.00830749
-0.297982
0.420122
0.0104742
0.0123332
0.0262041
0.563046
0.681341
-0.754484
0.0173239
0.00446043
-0.0040682
0.00528288
-0.00528288
-0.473992
0.633047
0.0153687
-0.0153687
-0.770155
-0.00975031
0.0141432
-0.498717
0.660148
0.540104
-0.568981
0.0709455
-0.0709455
-0.0115932
-0.0469659
0.00416855
-0.918015
0.521461
-0.541703
-0.0050192
0.59143
0.0115474
-0.602977
-0.703005
0.141729
-0.31554
-0.0131448
0.328684
-0.0303167
-0.0243866
-0.600688
-0.0348563
0.0273104
0.00555736
0.000107769
-0.00310754
0.00310754
-0.366592
0.304747
-0.444091
0.137215
0.664242
-0.142588
0.00409284
-0.00409284
0.511204
-0.151859
0.00893376
0.0190029
0.000263675
0.594701
-0.74656
-0.71804
0.627834
-0.121582
0.33617
0.751469
-0.00674213
-0.0942403
0.103651
-0.694563
0.542558
-0.37975
-0.111576
-0.019717
-0.0262588
-0.00264897
0.47911
-0.088957
-0.411078
0.675725
0.00244549
0.00578531
-0.00578531
-0.220518
-0.13433
-0.573448
0.615779
-0.138151
0.506746
-0.158513
0.779458
0.709211
0.00555736
-0.654332
0.58408
0.0617608
-0.0388921
-0.0228687
0.582955
0.103491
-0.0121728
0.067264
-0.0550913
0.00906524
-0.00906524
-0.825613
0.0227603
-0.0465143
0.0655172
-0.0867012
0.0867012
0.00446043
-0.00264929
0.710027
0.0568441
-0.316589
-0.0950223
-0.519246
-0.0125001
-0.0670394
0.0670394
-0.0671268
0.0825572
-0.0825572
0.0268118
-0.0268118
-0.356912
-0.0791624
0.239101
0.0705537
0.0427796
-0.780852
-0.0677815
0.161332
0.0221825
-0.24753
0.0820674
-0.0820674
-0.463928
-0.0535056
0.230678
-0.00945232
0.00244982
-0.634633
0.655412
0.00742841
-0.0745552
0.0496598
-0.0966257
-0.0116116
-0.158802
0.170414
-0.150288
-0.209053
-0.0816831
0.0816831
0.0548793
-0.0548793
-0.0281475
-0.0948162
0.122964
-0.0186058
-0.189232
-0.0102179
0.00614971
-0.206429
0.511177
-0.0260204
0.453718
0.00869684
0.00970959
-0.0513268
0.0513268
-0.730271
0.318547
-0.128234
-0.208794
-0.0231721
-0.0174939
0.0199437
0.20063
0.0304542
-0.000740354
0.00100403
0.0851737
0.0300472
0.0570633
0.104269
-0.0239564
0.0169222
0.000120183
0.00247188
0.0054762
0.00687508
-0.0123513
-0.00132488
0.0111423
0.027674
-0.027674
0.0497702
-0.0432999
0.0432999
-0.191323
0.0121815
0.0253727
-0.0764388
0.0177466
0.0780198
-0.0780198
0.251997
-0.238669
0.0883809
-0.0672266
-0.171442
-0.0151175
0.0151175
0.405875
0.252548
-0.523064
-0.0804294
-0.0394642
0.543091
0.031054
-0.0637861
-0.460345
0.0816066
-0.15338
0.170434
-0.0170545
-0.0479726
0.0479726
0.833076
-0.596061
-0.0106038
0.00927893
-0.00580144
-0.287805
-0.000489766
0.00501801
-0.0481922
-0.620331
0.572751
-0.651009
0.0146437
0.171884
0.0157127
0.0245149
-0.159181
-0.332928
0.256489
-0.0553529
0.0272054
0.170348
0.136641
0.281237
0.265237
-0.249524
0.00558397
-0.117458
-0.221939
0.0679093
-0.0108461
0.161518
-0.137003
-0.0685307
0.153704
-0.383409
0.122318
-0.104571
0.0600997
-0.471178
0.175452
0.178651
-0.247182
0.010402
-0.179002
0.178512
0.00404757
0.149657
-0.0279313
0.0493647
0.461839
0.0125564
0.0192775
-0.00633752
0.0392584
-0.238993
-0.203995
0.584225
0.16844
0.0622379
0.0758072
-0.0628697
0.0760258
-0.0988944
-0.0304862
0.166924
-0.15228
0.0166285
-0.00445409
-0.107544
-0.029345
0.0335508
0.252621
-0.0297101
-0.0205999
-0.311977
-0.0122051
0.218577
0.140731
0.177817
0.0569465
0.0969434
0.0370488
0.525997
-0.0122311
0.105823
0.0413322
0.0673954
-0.108728
-0.270516
-0.197677
0.026235
-0.218557
0.285742
)
;

boundaryField
{
    FrontBack
    {
        type            empty;
    }
    Top
    {
        type            calculated;
        value           uniform 0;
    }
    In
    {
        type            calculated;
        value           uniform -1;
    }
    Bottom
    {
        type            calculated;
        value           uniform 0;
    }
    Out
    {
        type            calculated;
        value           nonuniform List<scalar> 10(1.03306 1.05074 1.03171 1.04208 1.05068 1.04732 1.03448 1.05502 0.832121 0.822787);
    }
    circle
    {
        type            calculated;
        value           uniform 0;
    }
}


// ************************************************************************* //
