/*--------------------------------*- C++ -*----------------------------------*\
| =========                 |                                                 |
| \\      /  F ield         | OpenFOAM: The Open Source CFD Toolbox           |
|  \\    /   O peration     | Version:  2412                                  |
|   \\  /    A nd           | Website:  www.openfoam.com                      |
|    \\/     M anipulation  |                                                 |
\*---------------------------------------------------------------------------*/
FoamFile
{
    version     2.0;
    format      ascii;
    arch        "LSB;label=32;scalar=64";
    class       volVectorField;
    location    "7";
    object      U;
}
// * * * * * * * * * * * * * * * * * * * * * * * * * * * * * * * * * * * * * //

dimensions      [0 1 -1 0 0 0 0];

internalField   nonuniform List<vector> 
808
(
(0.888044 -0.0124037 0)
(1.00806 -0.0382757 0)
(1.04349 0.00643589 0)
(1.07088 0.0131707 -1.90056e-21)
(1.47724 -0.266671 0)
(0.95025 -0.0091457 0)
(1.08065 -0.0587324 -1.87937e-21)
(1.04038 0.0222433 0)
(1.36074 -0.210036 3.11811e-20)
(1.22917 -0.0699031 -1.52531e-20)
(1.06551 -0.0432177 7.81917e-21)
(1.39069 -0.235808 0)
(1.02072 -0.00383326 0)
(0.722667 -0.0238045 0)
(1.05033 0.0302405 2.23001e-20)
(1.04317 0.00832697 0)
(0.912011 0.0312472 -7.47539e-21)
(1.02056 -0.00435086 -8.90705e-23)
(1.04039 -0.00249304 0)
(1.09893 -0.00722173 0)
(1.05747 -0.0600339 -1.0913e-20)
(0.931988 0.123876 1.03403e-19)
(1.07647 0.0181785 -9.05809e-21)
(1.17142 -0.013621 0)
(0.960433 0.178421 0)
(1.35459 0.00745468 -3.5519e-20)
(1.28411 -0.157347 1.49646e-20)
(0.994508 -0.00057293 -4.69349e-21)
(1.06398 -0.000901786 0)
(1.0537 0.00790216 -2.13105e-22)
(0.996051 0.00970076 4.62959e-24)
(1.11356 0.00167606 0)
(1.02063 -0.000840328 0)
(1.07354 0.00092812 3.43684e-21)
(1.29827 -0.0416616 1.09224e-20)
(0.739545 -0.120367 1.0564e-19)
(0.860604 -0.0278778 -1.94009e-21)
(1.02809 -0.00448177 7.8375e-22)
(1.13986 -0.0109394 -1.86857e-21)
(1.06379 -0.0175472 0)
(1.25979 -0.0342715 -2.12744e-20)
(1.27721 -0.110118 0)
(1.00884 -0.0412295 -4.44019e-21)
(1.04372 -0.018872 7.89918e-21)
(1.28233 -0.140085 0)
(0.997176 0.00806073 -1.57109e-20)
(1.0163 0.0153194 1.2344e-21)
(1.25954 -0.235303 2.02392e-20)
(1.11469 0.00645047 -3.63829e-21)
(1.41332 -0.15093 -4.50456e-20)
(1.0963 -0.0436618 3.83258e-21)
(1.15174 -0.0586757 0)
(1.12481 -0.0100899 3.8957e-21)
(1.04448 0.00107228 0)
(1.31936 0.218606 6.23048e-21)
(1.05802 0.0521749 -1.98414e-22)
(1.02744 0.00729209 0)
(1.04005 -0.0190151 4.09985e-21)
(1.23441 -0.0786167 1.63732e-20)
(1.12491 0.0383265 1.02294e-21)
(-0.266029 0.153447 0)
(1.22222 -0.202536 -1.22956e-20)
(1.04806 0.00406319 0)
(1.42888 -0.0340102 -3.33245e-20)
(1.05106 -0.0275078 -8.69356e-21)
(1.02182 -0.0287696 -5.29575e-21)
(1.40706 -0.0946137 3.50051e-20)
(0.737309 0.00193687 0)
(1.05415 -0.0488546 0)
(1.46165 -0.34044 0)
(0.889887 -0.0122246 -1.10064e-22)
(1.29087 -0.126607 -4.70786e-20)
(1.00561 -0.00500429 0)
(1.01937 -0.00210363 -2.94061e-21)
(1.1288 -0.332871 -4.90658e-20)
(1.07427 -0.0282814 -8.76795e-21)
(1.12205 0.0323003 7.28721e-22)
(1.3251 0.495197 2.52961e-20)
(1.06564 -0.0560429 0)
(1.01215 0.27598 -1.69611e-19)
(1.3474 -0.0043862 1.92095e-20)
(0.779025 0.0164232 0)
(0.947069 0.0264724 -4.50214e-21)
(0.975242 -0.115446 3.77062e-21)
(1.07177 -0.0169667 6.77382e-21)
(1.15921 0.0318983 1.77003e-21)
(1.31754 -0.22625 0)
(1.34927 0.27859 0)
(1.08351 -0.010931 -6.95312e-21)
(1.41984 0.0561864 3.83645e-20)
(1.06743 -0.015269 5.25898e-21)
(1.31956 -0.0990426 -1.75609e-21)
(0.964482 0.0289057 1.54503e-20)
(1.00643 -0.0315695 0)
(1.0869 0.00415781 9.93877e-22)
(1.39261 -0.00552282 -8.91715e-20)
(0.932842 0.0117687 -2.48755e-21)
(1.3402 -0.0820807 0)
(1.324 -0.0591878 0)
(1.43174 -0.0639499 -5.42801e-20)
(1.05079 -0.0327002 -1.90492e-21)
(1.10366 0.0180021 1.34228e-22)
(0.942042 0.0322004 7.37764e-21)
(1.14147 0.0236422 -8.56739e-22)
(1.29824 0.0620831 -2.65993e-20)
(0.992179 0.000621324 9.03142e-21)
(1.4492 -0.126324 0)
(1.04062 0.00309118 0)
(1.10559 0.0803613 -3.31391e-22)
(1.20826 -0.208501 -3.44995e-21)
(1.24187 0.0477336 1.24145e-20)
(1.04366 0.0408734 -1.14223e-19)
(1.12899 0.0875018 4.55872e-22)
(1.11968 0.080587 5.53763e-21)
(0.946885 -0.0147156 0)
(0.914137 -0.0454721 7.12175e-20)
(1.12766 0.0333403 -5.25427e-22)
(1.45965 -0.247796 -2.15888e-20)
(1.02602 0.000684295 -6.3613e-21)
(0.905003 0.0134465 1.7138e-21)
(-0.469012 0.129976 0)
(0.830729 -0.0196818 1.84476e-21)
(0.775012 0.0498221 0)
(1.07528 0.013577 -5.97288e-23)
(0.997958 0.0287021 0)
(1.31075 0.313456 9.70337e-21)
(1.02403 -0.0520692 -2.54903e-20)
(1.17027 0.0827335 2.05839e-21)
(1.15522 -0.0454982 0)
(1.09315 -0.0209659 0)
(0.691755 -0.0211961 0)
(1.02684 -0.00171776 -2.8319e-21)
(1.24238 -0.0210912 1.23421e-20)
(1.06991 0.106206 -2.87027e-20)
(0.978175 -0.0119414 0)
(1.10936 0.0459937 6.36979e-23)
(1.07114 0.0481803 2.65989e-21)
(1.03991 0.0071579 -1.68349e-21)
(0.9419 0.0238949 3.22019e-22)
(1.09421 0.00372373 -1.12524e-22)
(0.02058 0.100279 0)
(1.0901 -0.0154667 -5.73941e-21)
(1.05434 0.00959435 2.0136e-21)
(0.715391 0.00482123 -8.56801e-22)
(1.25984 0.16129 1.80904e-21)
(1.08319 0.098759 3.78805e-21)
(1.05183 0.0247511 1.23141e-20)
(0.99165 0.0374913 0)
(1.13404 -0.248769 -5.74716e-21)
(1.0425 -0.00468882 0)
(0.886114 0.00798346 1.44858e-21)
(0.966086 0.27672 1.35771e-19)
(0.953868 0.0252879 0)
(0.82745 0.0931845 0)
(-0.153469 0.0709057 -7.83346e-20)
(1.33967 0.116432 -1.48373e-20)
(0.676026 0.000611595 0)
(1.45392 -0.0157195 0)
(1.04568 0.0193693 0)
(1.3529 0.0678234 1.65296e-20)
(-0.0471871 -0.137803 0)
(-0.0630583 0.12826 3.68777e-20)
(1.07989 -0.0323537 9.97081e-20)
(0.993052 0.0626216 -6.01416e-23)
(0.862166 -0.0162111 0)
(1.01391 -0.00369751 8.99116e-21)
(0.876175 0.0400136 0)
(0.839458 -0.0269425 -1.07729e-19)
(1.02236 -0.00356795 6.10357e-21)
(1.0369 -0.0228174 2.82812e-21)
(1.08185 0.0201482 3.97552e-21)
(1.02223 0.0734639 -9.71111e-21)
(0.961397 0.0578305 -3.77077e-21)
(1.14114 -0.343448 2.63378e-22)
(0.951142 0.00450029 0)
(1.05856 0.0144552 -8.71278e-21)
(0.872773 0.0132221 -8.73835e-21)
(1.38464 -0.146081 2.66622e-21)
(0.76613 0.0178835 0)
(1.08817 -0.13612 0)
(1.04233 0.000859573 2.58828e-21)
(1.39359 0.204945 1.19139e-20)
(1.10552 0.0144338 2.10143e-21)
(1.03164 0.0248262 1.67839e-20)
(0.846334 0.0421231 -8.97935e-20)
(0.817929 -0.00418473 1.63807e-20)
(1.13628 -0.0268658 1.58627e-21)
(1.37396 -0.0297772 -5.97315e-21)
(1.05011 -0.00449864 -4.77906e-21)
(1.31819 -0.00767161 5.11861e-21)
(-0.175116 0.0983978 5.7183e-20)
(1.26183 0.0142437 0)
(0.68408 0.0123155 0)
(1.0548 -0.0131916 -4.12325e-21)
(1.09937 0.0105527 1.19141e-21)
(0.11094 0.105927 0)
(0.960771 -0.00656751 3.89691e-22)
(1.04177 -0.00424304 -2.84384e-21)
(1.05679 -0.0111076 1.44524e-21)
(1.08209 0.0358063 -5.90674e-21)
(1.00649 0.0263196 1.80326e-21)
(1.0235 -0.000297975 2.50855e-21)
(1.06859 -0.00619212 0)
(0.378644 -0.0351961 0)
(1.0439 -0.0646138 0)
(1.17473 0.0964387 -3.17791e-20)
(-0.0512347 -0.140634 5.42228e-20)
(1.07001 -0.00606932 -1.05106e-23)
(1.041 -0.00289416 0)
(0.700424 0.0323911 -8.34348e-22)
(1.05986 0.00295209 1.75185e-21)
(-0.000215905 -0.0410246 -1.71458e-19)
(0.952785 0.0396905 -6.59498e-20)
(0.671971 0.00730405 0)
(1.04939 -0.00512524 0)
(0.937256 0.0137743 8.5954e-21)
(1.06257 -0.104129 6.71078e-21)
(1.28034 0.39347 3.85795e-21)
(1.03937 -0.00648437 -7.10967e-23)
(1.03751 0.00277375 -3.65249e-21)
(1.04839 -0.00125007 0)
(1.36496 0.419852 -4.62604e-20)
(0.715668 -0.00288969 0)
(0.959646 0.00929889 -3.90527e-21)
(1.06296 0.000231959 -9.18021e-23)
(0.667163 0.00635136 0)
(1.10529 -0.00356055 0)
(0.109228 0.0392641 -5.77123e-20)
(1.05932 -0.0133431 -7.60173e-21)
(0.915374 -0.00836878 2.47475e-21)
(0.994782 -0.00197108 0)
(0.693485 -0.00313737 0)
(0.928811 -0.000701692 -3.85856e-21)
(0.711807 -0.000137761 -5.4007e-22)
(1.32006 -0.0246623 3.5274e-22)
(1.04407 0.00399793 -3.46096e-21)
(0.889612 0.00687569 -1.50644e-21)
(1.06048 -0.00300114 8.05063e-23)
(1.03714 0.0034319 6.69912e-23)
(0.700814 0.00583864 4.58523e-21)
(1.03033 0.0100609 4.66811e-22)
(1.03447 0.00189857 0)
(1.04556 0.00464757 0)
(0.684591 0.0184673 0)
(1.04981 -0.00567331 0)
(1.03354 -0.00242625 -7.17037e-22)
(1.04174 0.00278378 0)
(1.0487 0.00013352 0)
(1.04679 -0.000566399 0)
(1.05978 0.0502038 0)
(-0.0266773 -0.0601058 5.43483e-20)
(1.01654 -0.000901916 5.10804e-22)
(1.05535 0.00490343 0)
(1.30629 0.0819377 1.55022e-20)
(1.03627 0.00585018 6.94998e-22)
(1.10173 0.0709519 2.64003e-23)
(1.04819 0.0047158 4.1248e-21)
(1.0356 -0.000441736 0)
(0.68207 -0.0131953 7.90882e-21)
(1.0721 0.0423184 9.44486e-21)
(1.06079 0.00357588 0)
(1.03229 -0.0115151 -1.94401e-21)
(1.02819 -0.00725719 2.26588e-21)
(0.749542 0.0703779 -1.32664e-20)
(1.07218 -0.00180464 4.33208e-21)
(1.04413 0.00114049 -4.8883e-21)
(1.04762 0.00618779 0)
(1.07672 0.0699427 -1.68307e-20)
(1.04526 -0.000142892 -2.69061e-21)
(1.01714 0.0132186 8.33031e-21)
(1.03792 -0.00245442 0)
(-0.0133623 -0.0221872 0)
(0.967796 0.106307 -1.64678e-20)
(1.03733 0.00415356 0)
(1.26354 -0.125777 2.22728e-20)
(1.03906 0.00639014 6.71541e-22)
(1.03097 -0.00918703 4.69875e-21)
(1.04563 -0.00437393 -1.95456e-21)
(1.37228 0.0152649 1.26613e-19)
(1.02107 -0.325056 4.9535e-20)
(1.04102 0.00626586 1.28818e-22)
(1.03792 0.00225876 0)
(1.04915 0.00818103 0)
(0.894145 0.00203594 -2.02732e-20)
(1.31422 -0.253331 -5.281e-20)
(1.03835 -0.0030006 0)
(0.959134 0.035901 1.20452e-20)
(0.724592 0.0605741 0)
(1.03033 -0.00378494 5.05266e-21)
(1.00861 0.0239673 -1.38641e-20)
(0.843894 -0.00773051 -5.45616e-21)
(1.04269 0.0064743 0)
(1.04124 -0.000913429 -7.83284e-22)
(1.04612 0.0161079 3.70249e-21)
(1.02844 -0.0162383 -6.46152e-21)
(1.04137 -0.000617243 -3.77006e-21)
(1.03307 0.00362718 0)
(1.09494 0.0581807 0)
(1.04663 -0.0087156 5.21296e-21)
(1.0338 -0.0106909 -5.10399e-21)
(1.04066 -0.00666962 4.46419e-21)
(1.03723 0.00474842 -3.69298e-21)
(1.04255 -0.0065599 5.14414e-22)
(1.03963 -0.00617846 0)
(0.43064 -0.141178 1.52073e-20)
(1.32549 0.0486925 -2.44385e-20)
(1.02456 0.00953971 -9.79199e-21)
(0.46823 -0.00395365 1.40282e-20)
(1.42902 -0.0973722 3.01138e-20)
(0.973832 -0.0672977 8.38209e-20)
(1.04616 -0.00151161 -5.3819e-21)
(1.03718 0.00279185 -3.4414e-22)
(-0.0812579 -0.138548 -9.3974e-21)
(0.986642 -0.00717164 0)
(1.0401 -0.0911093 -1.43966e-20)
(0.826238 -0.025642 2.14409e-21)
(1.03229 0.00105914 3.49282e-21)
(1.02652 -0.00979114 -1.01374e-21)
(0.725326 -0.0183099 1.26755e-21)
(1.42035 -0.370947 -1.59295e-20)
(1.04788 0.0143565 0)
(1.05535 -0.00961219 -3.41289e-22)
(1.08292 0.0182893 -2.26605e-21)
(1.05345 -0.0110336 0)
(1.02522 -0.000559591 -7.44699e-21)
(1.06893 0.00753523 2.82976e-21)
(1.01339 -0.0093047 1.65886e-20)
(1.09865 -0.0726939 5.01235e-21)
(1.03683 0.00339923 4.06219e-21)
(-0.0626213 -0.0343467 0)
(0.530253 0.0620052 -1.6588e-20)
(1.05046 -0.00571553 0)
(1.01348 0.107187 -1.02398e-20)
(1.06198 0.14322 0)
(1.13433 -0.0246584 -8.91343e-22)
(1.01939 0.0325364 0)
(1.04317 0.00123271 0)
(1.39472 -0.0905635 2.47891e-20)
(0.79459 -0.0879685 0)
(1.124 -0.0586557 1.99541e-20)
(1.03984 0.00151263 3.74341e-22)
(1.02555 0.0217014 2.72327e-21)
(1.25976 -0.156396 -1.43388e-20)
(1.24375 0.108517 -8.95023e-21)
(1.08332 -0.00693722 1.37634e-20)
(1.04128 0.0231918 0)
(1.11156 -0.0544978 0)
(1.05391 0.0246817 1.799e-21)
(1.18989 -0.081481 0)
(1.42656 0.204966 -2.92311e-20)
(1.00959 -0.026537 1.53157e-21)
(1.0206 0.0123144 1.7198e-20)
(1.21279 0.0566686 -2.73245e-22)
(-0.0193145 -0.000363771 0)
(-0.0364861 -0.10089 0)
(0.134201 0.0551188 -5.41191e-20)
(-0.060916 -0.130728 0)
(0.978664 -0.0165566 -1.12755e-20)
(1.10692 -0.00626481 -3.05299e-21)
(1.09354 -0.0508539 -5.49887e-21)
(1.13282 -0.0954172 -4.68528e-21)
(1.15226 -0.0971669 0)
(0.905756 0.000347522 -1.99505e-21)
(1.0508 0.0435161 0)
(1.0499 -0.0142087 5.0433e-22)
(0.525821 -0.110577 0)
(0.967475 -0.0286139 -4.28234e-22)
(1.0605 0.047289 0)
(1.05502 -0.00243961 0)
(0.736429 0.162312 4.79733e-20)
(0.892545 -0.0213371 -2.37908e-21)
(1.04034 -0.00943374 1.39233e-21)
(1.03193 0.01743 -6.75672e-21)
(0.226602 -0.0917676 0)
(1.09742 -0.0237622 -2.30156e-20)
(1.18193 0.0995447 -2.12007e-21)
(1.07961 -0.018012 1.06555e-21)
(0.878119 -0.0337979 1.15684e-20)
(-0.0914169 -0.0777279 -1.11036e-19)
(1.09794 0.0269896 0)
(-0.0328408 0.0412786 0)
(1.13742 0.0450946 3.39294e-21)
(0.761847 -0.0353076 -1.24495e-20)
(1.04673 -0.0033953 -8.82368e-21)
(1.06935 -0.0533564 0)
(1.07379 -0.0590598 4.30008e-21)
(1.24197 -0.267789 5.48834e-21)
(0.587286 -0.0413615 -1.11121e-20)
(1.11125 -0.0525615 5.21193e-22)
(1.10307 -0.0440609 -2.20317e-22)
(0.529702 -0.206091 4.95225e-21)
(1.07116 -0.0732091 -1.29712e-20)
(1.08395 0.0663597 0)
(1.09157 0.0443943 0)
(1.11385 -0.090016 1.90051e-21)
(1.15008 0.0765195 1.91612e-21)
(0.666006 -0.210236 -7.2664e-21)
(1.19057 -0.106828 -4.19364e-21)
(1.11539 0.00537722 2.76426e-21)
(0.599715 0.00881166 5.55228e-21)
(0.5535 0.149114 -9.35612e-20)
(0.35129 -0.0756721 1.08666e-20)
(1.16701 0.181362 -6.66348e-21)
(1.24171 -0.490375 8.09544e-21)
(1.33759 0.0967134 -1.47092e-20)
(1.13245 -0.0953766 -2.25227e-21)
(0.933064 -0.23472 8.77861e-20)
(-0.116899 -0.0477371 0)
(1.03589 0.015729 -5.99314e-22)
(0.136499 0.0663292 5.74343e-21)
(1.13046 0.0316506 -2.93601e-21)
(1.05471 0.00569256 5.7396e-21)
(1.05284 -0.000877058 0)
(0.795017 -0.0716147 0)
(1.16113 -0.0270199 0)
(1.26508 0.157833 3.20682e-21)
(1.2359 0.0127301 -2.61437e-20)
(1.10369 -0.0721603 -1.7204e-21)
(0.690307 0.00366328 0)
(0.836694 -0.00357344 0)
(0.828818 -0.00603375 5.14151e-23)
(0.701422 -0.00971941 0)
(1.04611 0.0020162 0)
(1.00822 -0.015514 1.99699e-20)
(0.608919 -0.09772 0)
(0.982746 0.000343539 0)
(1.03434 0.00145138 0)
(1.17288 0.175278 6.4428e-22)
(1.20831 0.0641813 7.62825e-21)
(0.942579 -0.0286048 4.24593e-21)
(1.31637 -0.397035 -1.22807e-19)
(0.73062 -0.162302 -8.91727e-21)
(1.05721 0.0485499 5.46143e-21)
(1.0518 -0.00556605 0)
(-0.206466 -0.310865 0)
(-0.273324 0.103316 0)
(1.12545 -0.0673799 -4.48249e-21)
(1.33193 -0.276648 -4.10597e-20)
(1.21779 0.131498 0)
(1.044 0.0240546 -7.28404e-21)
(0.674506 -0.211241 0)
(1.51263 -0.139717 8.80309e-20)
(0.414906 0.523167 1.05536e-19)
(0.318953 -0.0462116 0)
(1.12504 -0.274563 1.31835e-19)
(0.449053 0.210232 0)
(0.187452 -0.103921 6.69579e-21)
(1.28424 0.119559 0)
(-0.0983217 0.119097 4.97318e-21)
(0.982829 -0.0515867 0)
(1.20589 -0.137918 -8.69596e-21)
(-0.234351 -0.0279496 -9.572e-21)
(1.1024 -0.0265753 -2.4087e-22)
(1.11304 -0.0533472 -8.63643e-21)
(0.575316 -0.521498 -8.68067e-20)
(1.05111 -0.00185907 -1.18677e-21)
(1.19501 -0.114474 -7.31411e-22)
(1.17967 0.240758 -1.37246e-20)
(1.17754 -0.200235 1.39186e-21)
(1.1359 -0.0480989 -9.68047e-22)
(-0.0243822 -0.0167437 -6.98034e-20)
(0.0761355 0.130664 -8.54562e-21)
(1.10165 0.0903295 2.48108e-21)
(1.04871 -0.0283303 0)
(0.866868 0.0714584 -6.88841e-21)
(1.4182 -0.433434 9.74711e-20)
(0.992997 -0.0712415 -7.12792e-20)
(1.44865 0.134999 8.80921e-20)
(1.03651 -0.00518604 1.99676e-21)
(1.08705 -0.0795204 1.11196e-20)
(1.0727 -0.0147645 0)
(1.15641 -0.000306414 0)
(1.20023 -0.106235 7.30326e-22)
(1.08796 -0.0283892 -4.18296e-21)
(1.18751 -0.180455 -1.1138e-21)
(1.08617 -0.000665709 -4.75375e-21)
(1.42158 0.0329856 -5.19706e-20)
(0.454813 0.0308153 0)
(1.11927 -0.0759727 8.49738e-21)
(1.23941 0.107681 0)
(1.09054 -0.00253809 -1.83569e-21)
(1.1319 0.00574305 0)
(1.05925 -0.0200991 8.43976e-21)
(1.24055 0.0240119 1.93581e-20)
(1.04053 -0.00543315 0)
(0.0632478 -0.028455 1.77889e-19)
(0.88165 -0.213288 -6.88536e-20)
(1.36725 0.0907608 -3.45431e-20)
(-0.190889 -0.0280723 4.72406e-20)
(1.14718 0.0391406 3.03236e-22)
(1.04555 0.00556019 -2.57464e-21)
(-0.150242 0.0180204 -4.92193e-20)
(-0.0337009 0.0301534 -2.99419e-20)
(1.01473 -0.0297544 0)
(-0.0304905 -0.0415353 0)
(1.20847 0.132792 0)
(0.112426 -0.108835 0)
(1.11443 -0.0209808 0)
(0.155419 0.0336806 0)
(1.09036 0.106328 0)
(1.16034 0.138936 0)
(1.18338 0.0746342 -3.82085e-21)
(0.588074 -0.289555 -2.42051e-20)
(-0.23183 0.105589 0)
(1.1964 -0.0764781 7.41959e-20)
(1.04162 0.0127275 2.09822e-21)
(1.34796 0.131667 0)
(-0.0378626 -0.0438926 0)
(1.13928 0.0135304 5.26478e-21)
(1.15289 -0.0313499 -2.3528e-21)
(1.16821 0.385778 0)
(0.306706 -0.0802749 7.21423e-20)
(1.11742 0.0380466 6.56277e-22)
(0.250777 -0.0521725 -5.96853e-20)
(-0.060355 0.0451838 -3.47003e-20)
(-0.0345868 0.0494713 8.87323e-20)
(0.569084 0.0973573 -1.64875e-21)
(1.03774 0.00655558 2.42287e-21)
(1.1073 0.0554802 -3.88592e-22)
(1.0161 0.00163104 0)
(1.07661 -0.0601003 -1.70316e-20)
(1.1928 0.0916307 -8.19839e-21)
(-0.0170483 -0.0351842 1.12113e-19)
(0.989639 -0.0713429 -5.3906e-20)
(0.867466 0.082444 1.27337e-20)
(1.03105 -0.00285044 -2.82833e-21)
(0.0850528 -0.0316496 3.9239e-20)
(0.264179 -0.0372504 -5.46786e-20)
(0.455092 -0.0543283 -6.54416e-20)
(1.17596 0.0776587 6.34079e-21)
(-0.0557607 -0.0387286 0)
(1.08055 0.141021 5.52884e-21)
(1.13198 -0.1371 2.01635e-20)
(1.11574 -0.127578 -1.94419e-20)
(1.27139 0.109961 0)
(1.51444 -0.2009 8.70516e-20)
(1.06511 -0.00999087 -2.67037e-21)
(-0.0208043 -0.0562514 -3.86643e-20)
(0.328286 0.0992346 0)
(0.985846 0.0135189 -2.00306e-21)
(1.10422 0.0409703 -1.49009e-21)
(1.01099 -0.246832 1.62503e-20)
(1.14742 0.000757666 -2.02087e-21)
(1.11847 0.0296262 0)
(1.1801 -0.162472 -1.7021e-20)
(-0.106836 -0.0982082 -8.41938e-20)
(1.30258 0.015411 2.63412e-20)
(1.09783 0.165854 -8.74582e-21)
(1.0721 0.0225444 5.43672e-21)
(-0.0422006 -0.0729719 1.82734e-20)
(-0.0249716 0.0429885 -7.00579e-20)
(0.862062 0.105679 0)
(0.822337 0.175397 0)
(1.15057 0.0853336 -1.0341e-20)
(1.05536 0.0701902 9.60278e-21)
(1.05357 -0.0151854 0)
(0.657791 0.0340953 6.35521e-20)
(0.74446 0.0888812 -1.22845e-20)
(1.09675 0.101692 0)
(1.06054 0.0229506 0)
(1.33225 0.16221 0)
(1.03955 -0.00863445 0)
(1.05855 0.0263103 2.49757e-21)
(-0.0420144 0.044621 3.78999e-20)
(1.04654 0.00246018 4.40352e-21)
(1.44415 -0.170967 -9.95764e-20)
(1.03858 0.0201063 -4.21757e-21)
(-0.00221399 0.0669984 0)
(1.11772 -0.0961533 0)
(0.847745 -0.00166779 -1.5068e-21)
(0.546786 0.0085686 -6.30394e-20)
(0.074288 0.0361246 5.09658e-20)
(1.07057 -0.0239656 2.10341e-22)
(0.762875 -0.275162 0)
(0.706237 -0.0906879 0)
(1.04963 0.00475428 0)
(0.544244 0.518303 2.68124e-20)
(-0.0200781 0.0309202 -3.31024e-20)
(1.04171 0.00981229 -1.60447e-21)
(-0.0334939 -0.0835831 7.42031e-20)
(1.04723 0.00436883 2.23735e-21)
(1.1725 0.308898 2.61768e-20)
(1.11243 -0.084691 5.31243e-21)
(0.401393 -0.0225193 9.09115e-20)
(1.07087 0.109059 3.19759e-21)
(1.14158 -0.102986 0)
(0.564005 0.27366 0)
(1.03905 -0.00441452 4.37894e-21)
(-0.300186 0.0432152 0)
(0.764562 0.01801 2.7762e-21)
(0.610571 -0.421114 -3.72729e-21)
(0.243244 0.0495109 -1.18491e-19)
(1.13492 -0.223342 2.19048e-20)
(1.03636 0.360527 9.28286e-21)
(0.973896 0.0167444 0)
(1.04431 0.00602051 2.45214e-22)
(0.835425 0.00608783 0)
(1.04211 -0.00448279 -6.36595e-23)
(0.472686 -0.0161217 0)
(0.719895 0.123384 0)
(0.986099 -0.0128823 -1.25013e-21)
(1.44449 0.157082 -1.68923e-20)
(1.04307 0.00786628 2.48911e-21)
(0.525868 -0.495426 0)
(1.13667 -0.147566 -2.78218e-23)
(0.809094 0.376073 6.6757e-20)
(-0.038891 0.0189259 1.25187e-21)
(1.19743 -0.0563702 1.21776e-20)
(1.21457 0.0219924 -1.53443e-20)
(1.04511 0.00558375 8.1119e-22)
(0.897092 -0.00533277 -2.15042e-21)
(0.0644454 0.0187562 4.00605e-20)
(-0.0309384 -0.0276077 -6.25661e-20)
(-0.314358 0.0465927 0)
(-0.319788 0.186842 0)
(1.19586 -0.614103 3.58589e-20)
(1.14481 -0.0315844 9.446e-22)
(0.902545 -0.468014 -5.01164e-20)
(1.07009 0.119445 -1.29921e-20)
(1.37863 0.189191 3.79515e-20)
(0.608461 0.424385 0)
(0.247809 0.417779 -1.10442e-19)
(0.600403 0.480197 0)
(0.108208 0.0869477 0)
(1.12779 -0.475548 0)
(-0.0654466 0.0466157 -3.51564e-22)
(1.18061 0.0127431 0)
(0.903836 0.11841 1.82496e-21)
(0.599462 0.697104 2.05866e-20)
(1.28528 0.179329 -1.7496e-21)
(-0.0267031 -0.129408 -1.29572e-19)
(0.850295 0.11339 1.77133e-20)
(0.457412 0.145579 -1.42534e-20)
(1.21383 0.0649022 0)
(1.36707 0.353252 4.11855e-20)
(1.22681 0.567775 1.20244e-20)
(0.164416 -0.0179794 -2.39437e-20)
(1.02504 0.132296 3.51753e-20)
(0.998061 -0.0154146 1.43324e-21)
(0.996143 -0.00476876 -1.25262e-22)
(-0.000194716 -0.0354383 0)
(0.64837 -0.656366 -2.77689e-20)
(0.620236 0.195553 0)
(0.130191 -0.119509 0)
(-0.0490281 0.0665938 0)
(0.019455 -0.134123 -4.97935e-20)
(1.2179 -0.0189959 -1.39872e-20)
(-0.0219037 0.0740759 0)
(-0.0378083 0.0667518 0)
(1.45543 0.0968591 -8.47711e-20)
(-0.0327167 -0.098419 5.83825e-20)
(0.11557 0.23417 -9.8463e-20)
(0.396122 0.0164091 0)
(0.170362 -0.281279 7.79564e-20)
(1.11918 -0.237351 0)
(0.998453 -0.284038 0)
(0.0306945 -0.114566 1.23292e-19)
(1.13364 0.0390923 3.63003e-23)
(1.12475 0.339306 2.45618e-20)
(0.267035 0.0279507 4.90851e-20)
(0.405166 -0.520306 -3.15921e-20)
(1.33841 0.0568836 0)
(1.23383 0.193629 2.38407e-20)
(1.23032 0.207236 -2.92823e-20)
(0.102583 0.0854661 -2.28304e-20)
(-0.0968244 0.0131672 0)
(1.06563 -0.0529365 -1.83845e-20)
(1.10719 -0.218059 -1.08061e-20)
(0.583296 -0.408679 0)
(1.09787 -0.151033 -2.26637e-20)
(-0.0956698 0.156173 0)
(0.623384 0.0479623 0)
(1.40864 0.0787659 3.88429e-20)
(1.05177 0.0100122 3.83172e-22)
(1.08316 0.74822 -1.23453e-20)
(0.226097 -0.381217 1.23343e-19)
(1.05626 0.00348231 7.71251e-23)
(1.21013 0.0596663 2.14845e-21)
(-0.0579054 0.091311 3.32913e-20)
(0.793065 0.738751 2.40047e-20)
(1.35864 -0.35774 -1.38159e-20)
(0.00833891 0.112837 8.50537e-20)
(1.04962 0.0180365 0)
(0.311559 -0.00215861 -9.90379e-21)
(0.907324 -0.63818 3.36197e-21)
(0.906739 0.646528 -2.4338e-20)
(0.584482 -0.0305896 -7.2705e-20)
(1.13543 -0.0224881 1.40507e-21)
(1.08045 -0.0817315 4.89588e-21)
(1.12293 0.0735701 -4.29505e-22)
(1.10653 0.111833 1.91204e-21)
(1.13279 -0.120071 0)
(0.923201 0.106819 1.55299e-20)
(0.893776 0.4621 0)
(1.23415 0.13037 -4.23222e-22)
(1.17143 0.0975547 -2.65053e-21)
(0.758955 0.265636 0)
(0.526693 0.110646 1.1303e-19)
(0.898877 0.715913 -8.99505e-22)
(1.07686 0.285609 -1.8863e-20)
(1.03535 -0.00837296 9.11416e-21)
(0.419249 0.491915 0)
(1.3039 -0.465815 0)
(0.873348 -0.084752 6.43106e-21)
(1.27094 0.505826 0)
(-0.0219191 0.0557076 -4.58065e-20)
(1.29095 -0.406957 -2.13375e-20)
(1.16873 0.510361 0)
(0.457574 0.212801 1.64661e-19)
(1.13201 0.317486 -1.27318e-19)
(0.815494 -0.641331 -2.26652e-20)
(1.11794 0.0910016 -2.45314e-21)
(0.925529 0.15188 8.65133e-20)
(1.08186 0.163812 4.3855e-20)
(1.07686 0.708017 -1.15847e-21)
(0.902898 -0.439615 5.90175e-20)
(1.43364 0.165206 4.5889e-20)
(1.11621 -0.00756231 3.32712e-23)
(0.012719 -0.0656817 1.08271e-19)
(1.08777 -0.702056 3.66133e-20)
(0.873326 -0.721314 4.46499e-20)
(0.252043 -0.337175 0)
(0.974926 -0.145758 6.6083e-20)
(0.366274 0.305027 -4.27729e-19)
(-0.126822 0.032082 3.19141e-20)
(0.251347 0.0495778 2.4129e-20)
(0.710733 -0.0567517 -8.49435e-20)
(1.08252 0.530489 0)
(0.98771 0.216272 7.34178e-20)
(1.08071 0.0324921 2.40585e-21)
(0.915725 0.441899 -8.60628e-20)
(0.786324 -0.727556 -6.79208e-21)
(0.925044 0.0229429 -4.64309e-20)
(0.980167 0.489653 0)
(1.18329 0.142408 -1.32328e-21)
(1.38724 -0.506242 1.58611e-20)
(1.23505 -0.335013 1.05293e-20)
(-0.347009 0.132077 4.17497e-20)
(0.194921 -0.000536903 -1.76614e-20)
(0.968979 -0.117645 -5.50396e-20)
(0.355933 0.527864 0)
(0.922174 0.0148046 3.69967e-20)
(1.16326 0.640111 8.68919e-20)
(-0.0721081 -0.0724025 1.80303e-19)
(-0.0833423 0.0812098 -2.7876e-20)
(-0.142003 -0.0879323 4.7222e-20)
(1.08404 0.0191824 -3.05604e-21)
(1.14688 -0.460718 0)
(1.0694 -0.733152 -3.20816e-20)
(0.704839 0.34661 0)
(0.0698335 -0.0873351 -1.31413e-19)
(1.06416 0.00420375 3.21513e-21)
(-0.0555091 -0.10742 -3.4279e-20)
(1.03374 0.0505732 -1.22587e-20)
(0.106586 0.0295452 5.93892e-20)
(0.857408 0.127433 0)
(1.35195 0.0368791 5.08028e-20)
(0.0687488 0.0627993 -2.73944e-20)
(-0.357793 0.075789 -4.95675e-20)
(-0.333889 0.140164 0)
(0.0938538 -0.0161479 0)
(1.31863 0.033236 -1.6193e-20)
(0.405795 -0.0087376 1.76052e-19)
(1.27356 -0.723743 -3.41241e-20)
(1.02271 -0.129937 4.30021e-20)
(1.06932 0.244253 -2.58816e-20)
(0.369002 -0.561539 1.32873e-19)
(1.55652 0.272813 -3.78158e-20)
(0.0955639 -0.085183 4.22018e-20)
(0.210721 0.303391 1.91056e-19)
(0.120907 -0.0489118 -1.57474e-19)
(0.943699 -0.493488 -4.04039e-20)
(1.46069 0.386993 3.87009e-20)
(0.568948 -0.679048 4.50004e-20)
(1.11437 -0.074875 -5.27859e-21)
(0.292506 0.00303467 7.14558e-20)
(1.19172 0.291597 -5.0995e-20)
(0.666601 0.641882 -3.87005e-20)
(1.34965 -0.620207 0)
(1.42574 0.521231 3.58351e-20)
(1.05491 -0.527258 -1.27828e-20)
(1.39566 0.60929 -1.10488e-19)
(1.13694 0.0663753 0)
(-0.0529403 0.0938268 0)
(1.25759 0.733552 0)
(1.04933 0.000808946 -4.81899e-21)
(0.740552 -0.306115 -1.96927e-19)
(0.47662 -0.0885728 0)
(-0.0539571 0.11292 -2.82057e-20)
(1.0255 -0.244748 8.75647e-20)
(-0.43156 0.109145 0)
(0.321832 0.0205903 1.19318e-20)
(1.09796 0.061455 0)
(1.42419 0.272722 0)
(1.15908 0.0830809 2.62664e-21)
(0.36207 -0.297153 0)
(1.00931 0.142779 3.35414e-20)
(1.3161 0.284444 0)
(-0.113132 0.100807 -3.6759e-22)
(0.810765 -0.399532 0)
(1.52167 0.333401 -5.75141e-20)
(1.24107 0.3667 -3.36735e-21)
(0.845828 0.64842 -9.30712e-21)
(1.00974 0.152449 -8.10307e-20)
(0.975229 -0.20724 -4.30266e-20)
(1.45962 0.289605 3.37974e-20)
(1.03592 0.10463 0)
(0.564376 -0.0762591 0)
)
;

boundaryField
{
    FrontBack
    {
        type            empty;
    }
    Top
    {
        type            noSlip;
    }
    In
    {
        type            fixedValue;
        value           uniform (1 0 0);
    }
    Bottom
    {
        type            noSlip;
    }
    Out
    {
        type            zeroGradient;
    }
    circle
    {
        type            noSlip;
    }
}


// ************************************************************************* //
