/*--------------------------------*- C++ -*----------------------------------*\
| =========                 |                                                 |
| \\      /  F ield         | OpenFOAM: The Open Source CFD Toolbox           |
|  \\    /   O peration     | Version:  2412                                  |
|   \\  /    A nd           | Website:  www.openfoam.com                      |
|    \\/     M anipulation  |                                                 |
\*---------------------------------------------------------------------------*/
FoamFile
{
    version     2.0;
    format      ascii;
    arch        "LSB;label=32;scalar=64";
    class       surfaceScalarField;
    location    "922";
    object      phi;
}
// * * * * * * * * * * * * * * * * * * * * * * * * * * * * * * * * * * * * * //

dimensions      [0 3 -1 0 0 0 0];

oriented        oriented;

internalField   nonuniform List<scalar> 
1171
(
-0.9279041743956863
0.9279041743494095
0.7874038734712884
-1.099214373531636
0.3118105003206584
-0.1898962851137377
-0.7663434903901277
0.956239775417237
0.07209582398478022
-0.1174847289163211
-0.2123882844416392
0.3298730125119277
-0.7874038624364625
0.06938629231480842
0.7180175701390047
0.8112382504408203
-0.1779530026169492
-0.6332852479482962
0.8740067478975918
-1.044129849588722
0.1701231017379538
-0.285356162742141
-0.09806776436850446
0.3834239275408585
-0.03651692217422783
0.5489250146824374
-0.5124080926090809
-0.50744888895618
0.8271696179769176
-0.3197207288965485
-0.4028408850574458
1.045719838311802
-0.1717130897544328
0.392244557319
0.0504830543642398
-0.4427276132439776
1.045949857573784
-0.0002300184704899151
0.4443826011742947
-0.05213804664009211
1.05645220323454
-0.01050234765858416
0.5805093126790178
-0.770405592323011
-0.7240632218330674
0.5565852784023921
0.1674779433289501
0.2139085824742764
-0.7213574788752247
0.5498788196063595
-0.9225398764569086
0.3726610558905858
-1.094221067476384
0.6866252768538798
0.4075957907276457
-0.5955868459875185
0.5590699314421865
0.01717624042783392
-0.255725499601582
0.2385492581860324
-0.0224747836870931
-0.5239874074794002
0.5464621905174523
0.400312169830069
-0.498379927686123
-0.9189619716332734
0.9416936987917237
-0.02273172711524364
1.067770890235738
-0.01131868814301597
0.9348874426559141
-1.116696345416619
0.1818089026589265
1.067233745453546
0.0005371418917035525
-0.6643792153518552
-0.0596840034612013
1.262186037761285
-0.8643465163382181
-0.3978395214329831
0.1482717705764977
-0.1100040226064564
-0.3255371270934897
0.4355411500839799
-0.2854933292816095
0.1919733975254401
0.09351993225943625
-0.5836757793129823
-0.5155385992425324
1.014093497217236
-0.0792060549241574
0.009872420376675765
0.8255020673714388
-0.8353744876781997
0.5717144372861402
0.6904716031422258
0.4389209968480152
-0.03099354213699891
0.431305711744003
-0.8080760700785445
-0.102540987066777
0.9106170570369834
0.5021084276475006
0.2540516259059485
-0.7561600535486637
0.006527373089580531
0.5297178501596561
-0.5362452241047411
-0.4900127863937787
-0.6042082809512397
-0.4227583340724108
-0.6939380108723474
-0.02728115574555645
0.2707415125172012
-0.2434603557040511
-0.9247876918179169
-0.005114330218677739
0.9299020221143797
0.3085059575194456
0.07491797621877201
0.7615616773875099
0.0496765689198729
-0.532965159818784
-0.062621684509507
0.04599833846928512
-0.8540744081817239
0.07632950011108343
0.8630428822523153
-0.9393723823267857
-0.3468519712649
-0.0408049384018297
0.387656909971631
-0.6820811139146579
-0.2427065726776658
-0.6344098850320922
0.7107393840704147
0.6143917615187183
0.2127778499202627
-0.5434016272889653
0.945673015058528
-0.778933261139569
-0.1667397538491428
0.01054698917147579
-0.006830510079626642
-0.003716479168913367
-0.4034876253815641
-0.09489230256028404
-0.2411997094265103
0.8555914666005612
0.04843688523626265
0.3340944349492255
-0.3825313196228644
-0.4615511768783009
0.9636595999674937
0.6804571809091037
-0.7829981684655916
0.3193284057946625
-0.01552241852088555
-0.3038059866734804
0.9307221567634578
-0.9307221567408137
-0.7812719159372683
0.1111579614733668
-0.3235462416946092
-0.7499282673180213
0.7598006908251757
-0.09077830472390071
-0.1432832417075793
0.2340615473029899
0.8648857918645685
-0.03938371981504
1.054506707450015
-0.800455088196654
0.1867523485106922
-0.3163653160709806
0.1296129672517958
0.8584258316773874
-0.09686415564455481
-0.6113634158763915
-0.0391314103730984
0.650494826299111
0.1234214473532148
-0.2304117105605389
0.1069902620065263
0.8055612758426901
-0.9835142819122894
-0.434257917814486
0.3291086534855203
0.1051492636016854
0.5333946057147654
-0.5558693909762139
1.021924596994883
-0.4562131509868264
-0.5657114459755993
0.5991662633304721
-0.71930705106768
0.06653819513771871
0.6527688562922872
0.1022657725691522
0.5695581844879055
0.05524927672278027
-0.6248074613802177
0.1947959459832948
-0.08363798796192212
-0.4921204159656653
0.1452684446359947
0.05024889065701449
-0.886423691229288
0.8361748004792231
-0.4735043464707059
-0.7131908607853682
0.04881164662140519
0.4371124782982664
-0.005806763248033445
0.3000526370979976
-0.855287443639127
0.5552348063732092
0.4157588343291599
0.5842411655643615
0.56054046705417
-0.5145421320310669
-0.3677652975532659
0.03958935143986816
0.3281759495353636
0.6812651822492184
0.2494569750960647
-0.5671051583444301
0.5736325320670732
0.1115753542654287
0.8749475599035208
0.01021422125379949
-0.6215776340860545
-0.7490593546475608
0.7993082447649141
0.5304267808959505
0.07017832126994923
0.3010626097943536
-0.3712409313423712
-0.1674491303308454
0.4451288855797277
0.0845889764471465
0.8743383633923245
-0.8050613946955987
-0.0692769687640335
0.635352045999418
0.3103209710610945
-0.4307687809661124
0.5737278603776151
-0.5035495384950862
0.417081679846771
0.1327971378662104
-0.04672906427782084
-0.5927195709395818
-0.1389373026603901
0.7316568735995133
-0.1497469864698636
-0.7809751671630046
-0.6110185464122996
0.360218548153181
0.2507999995119436
0.6219281187770265
-0.6117138973676111
0.239094704889099
1.011541755190733
0.04296495133745361
-0.7490593572980286
0.2305090224508447
-0.2199620319382519
0.6804571827631234
0.8017716576340251
-0.8017716575404763
0.8376120452221268
-0.8330768543749122
-0.004535190930465194
-0.4453444003597352
0.8611032362383919
-0.1472952851547261
-0.3448251281834784
0.7347597176187144
-0.668562126919928
-0.06619759062769702
-0.7362455101896566
0.1435259396060476
0.1391063173331604
-0.6720714769645598
0.7829981786463547
-0.9504473089173733
-0.3684264398881645
0.2882864724320874
0.08013996992424642
0.1457357543256478
-1.010114795910607
0.8643790415541126
0.4809774166471835
-0.04205641970735655
-0.3080762748034552
0.5862665169414493
-0.2781902423005807
-0.7386108284783043
0.8843465846333231
-0.157005139462017
0.7312729153645043
-0.8402681295781562
0.1089952142733695
0.9765444184522251
-0.5391049670427119
-0.4374394513113481
0.7550425908075833
-0.0649923522862052
-0.03368534302792184
0.1845762855808556
-0.1508909420715677
-0.7758125480234872
-0.8393609699987479
0.07301748564971854
-0.7499282659554959
0.5137281450241706
-0.554533079640449
0.1005589487606262
0.7168109234033693
-0.8173698723205576
0.7535945596365274
0.1743095954881851
0.5029294842976924
0.4970705157295071
-0.05330356417234455
-0.6122070993104459
0.6655106627192938
0.8817118332170748
-0.007373473115354768
-0.7550425908277979
0.7993082456136884
0.1916335757780881
-0.4473590771979707
0.01302154322767741
0.003825158635349161
-0.01684670612230145
0.5887809885420503
-0.4373742557771187
-0.1514067333441806
0.7180175631711775
0.01021696048156858
-0.1080880556600097
0.4383716081702441
0.1504093796129154
-0.0162680147732983
-0.007063578249181333
0.02333159354017542
-0.0310727137619701
-0.002612626211728915
0.2458391333435238
-0.2613615600796271
-0.9587767962548406
0.00142696291397053
-0.1594685506287362
-0.1225872999194168
0.09452754269602751
0.7224598840218496
0.7289537286467472
-0.1447125621224414
0.6745177232716912
-0.5739587728493643
-0.2118690041074755
0.39862135369476
0.6956458764541671
0.02237168674898603
0.2418369438435656
-1.074913798743098
-0.9504473067489404
0.3026991936668049
0.7598006938528721
-0.2093079414712923
0.06602469825536676
-0.7238868461156361
0.9108924091379677
-0.1870055630101385
0.4155977188183354
-0.0279408021021374
0.7711824466137477
0.2806929503841342
0.3766079235172612
0.06777468587061748
-0.6587114740619913
0.6587114740820106
0.2147257031328552
0.6958913533904271
-0.05648778232223982
0.3905822116481542
0.379053365822013
-0.01407794415118495
0.02709950258488106
0.4483002550793864
0.03267716515426342
-0.7386108277147474
0.5339756111821558
0.2007841057591913
0.3001264859362193
-0.1155501991732832
-0.6956458753553344
0.1797508065070341
0.7311416019382814
-0.01021012868962922
-0.8136218064501155
0.8238319351486666
0.6964127764150426
-0.791967923463866
0.09555514696655815
-0.7535945528470125
-0.1505811905588617
0.2120056873052494
-0.06142449585797754
0.07746012183648679
-0.1784666672436645
-0.1126524752916132
0.2911191412085969
-0.007618611185984232
-0.00864939504493722
0.7063300764639938
-0.7165401974101011
0.8870843427677298
0.06915543739282039
-0.3117119366532741
-0.5230390764466146
0.8347510132078857
0.103443846198967
-0.1034438492934265
0.3278758210034755
0.4763071129011566
0.610894174183637
-1.087201287115955
-0.1940892460861545
-0.5855355691659202
0.7796248152292979
0.01293992857584771
0.2211216128328782
0.3762188137912346
-0.2527973767229106
1.016017495625622
-0.5397103859719298
0.6685859022337514
0.9924273418591882
-0.3815331709633262
0.2289235325539375
0.884346586401593
0.7126334962323152
0.2139015726787903
0.7277921236179665
-0.7809751665153498
0.3412885147854424
-0.2846043340833434
0.2606000022323114
0.02400433412483746
0.8504592316988202
-0.004257303911900961
-0.8462019280532667
-0.7021311461497045
0.7026682863646536
0.5546555984426902
-0.7021311469270944
-0.7126334962176899
0.7026682855212701
-0.03371056066378676
0.9082934454226033
-0.02120909952239184
-0.681265192674569
0.6122377977043171
0.06902739498354613
0.5385700776842278
0.5383743749831331
-1.076944452692638
0.4871364051158596
0.5288810895369296
0.5483192873997208
0.4574607197766178
-1.00578000723087
0.4927023001667282
0.4997250403568521
0.6122378048830704
-0.5256812883928631
-0.4666734680380196
-0.556132637348384
-0.5136792906627354
-0.1234572021805417
-0.01282526227809827
0.01282526321002983
0.5098709525193011
0.5245885529546019
-1.038267843729609
0.5719667531726103
-0.2709041423022137
-0.8829952148098978
0.3438902484103293
-0.6327984209706065
0.3900918500705369
0.0001269981626845506
-0.825996391009954
0.8258693929469922
0.4208774638484928
-0.02513484608348265
0.8755940779511368
-0.9461218257987242
-0.8336578913221523
0.05622496615032944
0.7774329253083114
0.5558898246407799
-0.438164624276666
-0.1177252003718193
0.650222117383131
-0.729428171697512
0.8869650151929559
-0.8267604195260975
-0.06020459539693565
-0.01477547678057768
-0.7902859210117229
-0.1112857500715906
0.7136028335356005
-0.6023170834844161
-0.9414526140336386
0.9266771371479762
-0.7312405953831721
0.6882976434986243
0.04294295194206153
-0.8021444134854253
0.02847684017066666
0.7736675734214541
0.06193377132002954
0.04151007777781369
0.4328497786348448
0.05915681987296554
-0.8502574374618443
0.7911006174875657
-0.646096844970423
0.5927932806142812
0.8887117461903579
0.07368778454315326
-0.9623995307360426
0.05505385823959193
-0.05054968297372789
0.3787256317541242
-0.3819118363372437
0.06554651896426382
0.8405050547412026
-0.8403780581999394
-0.7329889702696661
-0.814196198064326
0.02391027703236364
-0.1670782102594863
-0.8480615270888926
0.02130110286850102
0.6222453817365707
0.05227234297758535
0.02067861668288018
0.5352112056005343
-0.815832903692535
0.8443097474578342
0.565711446423763
-0.8511312390906325
-0.8677648272239843
0.04052862248749382
-0.0283261592116921
0.8339328883791404
-0.8056067291074314
-0.02219213831820466
-0.7613151280783919
0.5442808986788572
0.1521318837748819
-0.01809998617015152
0.8936940637593922
0.982902105176801
0.8615761331026899
-0.8402750317718911
0.1478486683927668
-0.1478486699076385
-0.1174977788593055
-0.4643501912646714
0.02618556507528668
0.2709559719777456
0.03174322208437522
0.3868248821745735
0.8715019268839774
0.008607451466571636
-0.0162260582172547
0.658589680917966
0.3414103191005294
0.7836224469375321
-0.583675781495323
-0.7780834002708412
-0.8098640301623186
-0.6799365553335166
0.6799365553472383
-0.1682573953480044
-0.1552888432959441
0.6021646488167024
-0.8113097400992301
0.2091450913182025
-0.4940876920680484
-0.5688427005878087
0.2779802114047963
-0.9719182223548515
-0.8986590612845302
0.8384544598100611
-0.8171526104630239
0.8410628884563434
0.648506556482674
0.1343271958378865
-0.7828337523462113
-0.7669210793095244
-0.1464695000689853
0.7252937755059663
-0.578824275499531
0.02715713695120798
-0.01173186154650326
0.01544291612047448
-0.003711053466966256
-0.3522877062872981
-0.1120624796299072
0.8801448633142273
0.7425063168938532
-0.2407421641485079
-0.5017641534428858
0.6247811236371812
0.6857906885367366
-0.4710649863362273
2.719527064377284e-05
-0.2855205239817752
0.0112521841342606
0.7499428343184616
-0.7611950181929746
-0.3234116629624678
-0.07246431446514445
0.07635388956975594
-0.9678606200164682
0.1216586929966904
-0.6769825395997953
0.05433911267951917
0.6397144532971195
-0.6940535660135785
-0.7561854653926985
0.0792029258054737
0.5892402271590068
-0.6617045415491595
0.1568997815626638
-0.3353664479471493
-0.7720610225151563
0.005139943125196233
0.371090450813934
0.5996652643917444
-0.02593740073914202
0.01965048117897414
-0.01965048149375173
-0.01988882514338795
-0.0506791395386452
-0.2339251919665779
0.02502575093204411
-0.01641832275288269
-0.7197886815214412
0.2793502216171481
0.6790061476508662
-0.6893910137177448
0.01038486629389037
-0.5949089961239088
0.6492481043536028
0.6546114321745565
-0.06537120233912531
-0.6306649997121881
-0.1255204692565353
-1.05022032788359
0.01116676715994175
0.1366819035755462
-0.7085364987778003
-0.7419507558909655
-0.7639583382119106
0.3661188188747221
-0.4051607148298152
0.4629856971123155
-0.05782498180308721
-0.6670070839138902
-0.04152941480291139
0.5001786613244625
0.7306855140015087
-0.2357925307051023
0.1132052313713715
0.962720679095397
0.4466266737063255
0.1321174429719321
-0.5787441167611247
-0.6766848115815189
0.009677729451152672
-0.04447766040492139
0.03274579318796941
0.6370781201682187
-0.776015422486443
-0.002343286050818022
0.002343285960157046
-0.6004434252236421
0.6497358986411235
-0.04929247356576465
-0.6560061974431323
-0.1137362145849461
-0.6717037916679786
0.0586048497531866
0.6069058092576278
-0.1376412609967996
-0.8181732910401086
-0.5715692232529136
0.5717973586797871
-0.0002281360925796582
0.628981429065087
-0.6185965683076149
0.3224774419219671
0.2135969457993059
-0.5360743877123755
-0.1048726331534403
-0.6020450415705927
-0.09200852590788708
-0.1538167466777881
-0.512964373930609
0.4042953110632719
-0.4991876152631896
0.1262795125669065
0.6787328057943723
-0.8050123182745882
0.5991662633269028
-0.3720520181412624
-0.0331086986019639
0.06674590541083045
-0.5797102834858677
0.5513336952778284
-0.04046306470012987
-0.5108706307062161
-0.3131163324786513
0.3057557402825498
0.007360593020845844
0.4516203655026861
0.1203463885886548
0.05256639183409576
-0.316535414202111
0.1575593459972132
0.1589760683796948
0.244814965861365
-0.01430594436812805
-0.2950406240744801
-0.3115608788038379
0.3525158383663808
-0.04095495816721209
0.7902445945987263
-0.6276567812469395
-0.02834941662239669
0.4993859287514081
0.2853848136870734
-0.5261269741237437
0.5774545008677285
-0.5774545008668504
-0.2897725483962552
-0.5864939879402863
-0.2955534009580836
-0.5864939880287913
-0.5962807065094643
-0.8384808080900433
0.1699186791554876
-0.6014712045096996
0.8211714178320543
-0.003199384847491967
0.1179509619961112
0.4817143039344111
0.09678140157546432
0.1859383385851998
-0.03634425490559778
-0.1495940820332289
-0.02967385601612964
0.5901456276838634
-0.9425640992083296
0.4195250198119078
-0.007529271454933101
0.001699460099338997
0.005829812458826789
-0.6441954775288542
-0.1320993734636137
-0.4672812258707345
0.5993986708835125
-0.5034835301346228
-0.3198167392144167
-0.2598935258348799
-0.272062768502315
-0.1114476811708407
0.1114476813621979
0.153524463624852
0.05848122823953871
0.1971051086578089
0.4486797422823884
-0.5695713316716239
0.102290102537056
0.253070736661616
0.4664415799194772
0.5335584209013813
0.6453596668963951
0.08441660148991366
0.0002262881877210673
-0.08464288594419818
-0.2771341554175201
-0.5410391357455684
-0.5472864421755524
0.1148744814287567
-0.1266980233744508
0.01182354243247813
-0.1055622874404265
-0.385288191403379
-0.05045066722562482
0.6573564963819393
-0.4994439188522179
-0.1447515586164426
-0.3266472495574291
0.2860485416590299
0.1293397851382289
-0.6154881867001448
-0.2046016562442494
-0.2630715335842352
0.001709990408393531
-0.4210907788479558
0.3230949652123744
0.09799581406685606
-0.09237605594733804
0.2917358225332829
-0.8959441045473322
-0.4573295125955548
0.6276826389512217
-0.7732603540542712
0.6683877209415409
0.3400325295493525
-0.1247834216253004
0.2239809072690878
-0.09919748655384407
0.03065153399429428
-0.5862079248334906
0.02870678545211687
0.5575011390724071
-0.9006042008748287
0.5478823519973227
-0.6653801307996607
-0.1041096427436147
0.1095582607435585
-0.1095582639642535
-0.3165082186714929
0.3585537845100636
0.02017184109049983
0.02371287473024507
0.06070371825010118
0.5044893813111833
0.6676762728751041
-0.7369532438766456
0.02753802369729677
0.01974743040597154
-9.695381046638074e-05
-0.006605956923690911
0.006605957577889369
-0.4103468068823351
0.5306931956145833
0.01579522065956316
-0.01579522050673827
-0.7926727570768258
-0.06057661048409343
0.122510376248338
-0.4533661028899815
0.5556562052272531
0.4508606987134184
-0.5001531674982218
0.150268619618502
-0.1502686205855631
0.03963344259150307
-0.01253393806999912
-0.04194991146132815
-0.9755286315886083
0.5380891818745506
-0.4681717949731876
0.04151007588112455
0.5152199959053776
0.03049066778276888
-0.5457106639668615
-0.6164859809796129
0.1170420637747244
-0.3290745942299994
0.01359713226015404
0.3154774612968451
-0.1552344534249635
-0.08055808552954995
-0.5410223682815487
-0.04518554904050213
0.1366819051840513
-0.04063149144483088
0.038288200744951
0.08100847836069418
-0.08100847443623131
-0.5260068494014456
0.4850518811773241
-0.4149204625667255
0.1612966021825878
0.6223258448133527
-0.09702981174269802
-0.004207558796548832
0.004207558744511582
0.5329797688428368
-0.08027697914142314
0.006114412032694757
0.02712364455784334
0.03490413289248578
0.6880300886336944
-0.7683070680167634
-0.658334175329429
0.6299847622843577
-0.109617980218473
0.3140126793430581
0.7455254631694324
-0.01988882343206568
-0.2652687831550286
0.1497185908092904
-0.7445943980770151
0.4837550758030894
-0.4269717508610049
-0.1012659747727547
0.003258534699276284
-0.01451199101421361
0.0252520589720002
0.4117305338875494
-0.1215613912965225
-0.3893092390400659
0.6290040029339633
0.01943120478579005
0.009041988505919077
-0.00904198822709254
-0.3518801620634783
-0.07732709935535607
-0.5602602916224851
0.5570609065271316
-0.237435890373856
0.464705135447068
-0.1507166990610988
0.7312260149853114
0.6693485495753806
-0.04063149245712083
-0.6174898035910866
0.5612604941485173
0.282205147401904
-0.2770815869601513
-0.005123558653769664
0.5376087104233621
0.09344256603879005
-0.03885342248461511
0.1961240943373879
-0.1572706712255387
0.1198619046158421
-0.1198619015649533
-0.8586152475307426
0.002419945679080656
-0.1134671186092154
0.1405907617272343
-0.1314859907383825
0.1314859911563065
0.01974743759290468
-0.02409638607044119
0.6702549576611775
0.06088664506879937
-0.3226080996018619
-0.06268009109337606
-0.4712873675916155
-0.04444210420634256
-0.1512565207120588
0.1512565215770618
-0.04500943425813128
0.143712107351549
-0.1437121079608844
0.1362506128451189
-0.1362506108679342
-0.3162137050372644
-0.1145550758269494
0.2259482957259526
0.1031603580541903
0.03478330557147041
-0.8212346891075184
-0.198217876321527
0.1698743189303872
0.02175925261538395
-0.2641909821710029
0.1262466741137007
-0.1262466746320112
-0.4143467251762497
-0.08484088786272218
0.235676206426804
0.002873049437145237
0.04037698726734945
-0.5446624709110951
0.5783730315806297
-0.03425053567075662
-0.01075889597319978
-0.02460360328051252
0.01206965782240519
0.006556498436831408
-0.1848037597219623
0.178247261442342
-0.1081389459219025
-0.2272274993363755
-0.1443464361218669
0.1443464367666555
0.07238633133350525
-0.0723863311280034
-0.01892974460852421
-0.108547864428964
0.1274776084333875
0.2339105085963867
-0.1835033633251863
-0.02382697125369967
0.02373000690904374
-0.1287747506291288
0.6138266300180183
-0.0390613605693175
0.4268814643100737
-0.04209829058321601
0.0654298774614567
-0.1530204903134268
0.1530204916187064
-0.6366733341424481
0.3080601614467424
-0.07913662884891165
-0.2340630189959159
0.003651306044332501
-0.1213165031989036
0.1616934915674735
0.1950132042005147
0.09610593569291129
0.09599000947673091
-0.06108587701220741
0.0732156454813789
0.04165883482437292
0.06419950757092541
0.1056748163168363
-0.1002576263567682
0.2134628713098084
0.01138528125270625
-0.116675937002191
-0.1007841958878961
0.09607288863055448
0.004711306441227837
0.01070544462220414
-0.02266709443075031
0.03732055405416789
-0.03732055404100244
0.07480759213722232
-0.05538856557803602
0.0553885658626839
-0.2243524888102348
-0.05124605662114415
0.01179048988141031
-0.1031262987944854
0.01638871094179466
0.1088709374094135
-0.1088709377885633
0.293009020623251
-0.2707672443394512
0.1626282951947175
-0.05072943190841327
-0.2200378114976096
-0.01679900293438889
0.01679900271830963
0.3676052055334605
0.2851636460739346
-0.5280827095791278
-0.09392393565056706
-0.03277408840013719
0.5289018029459869
0.2093068906151871
-0.1691628473845811
-0.3805221325806805
0.07657701975360288
-0.1471461246362953
0.1867486180210728
-0.03960249323476003
-0.06721210678006428
0.06721210661003819
0.82210248292931
-0.5603194453213136
-0.004270679683305219
0.01497612597293489
-0.02003830113265647
-0.2873882170210962
-0.0174654328267591
-0.01286045336460735
-0.1321931766986675
-0.5723309598367938
0.5561282573793829
-0.5687372092333562
-0.006910079577358972
0.09924550777140319
-0.001763974249799159
0.01676988149979219
-0.1671844253311045
-0.3361005116724608
0.2329742128395197
-0.05399552118758379
0.03506577538546519
0.1322272154185777
0.1735285251249079
0.3423827785264437
0.2758556598363343
-0.2776196344512479
-0.06249600035496578
-0.1551609979809948
-0.2204658903426133
0.07451706793549534
-0.0103175593753883
0.2134889000295686
-0.1967190189945384
-0.08624639200549708
0.1594620389944787
-0.3551402613454296
0.2080001040752202
-0.191611393344714
0.08963387926473967
-0.4789431136885003
0.1738881616734676
0.1707791366956478
-0.2570255314017342
0.07332291181510327
-0.194908594815903
0.1774431624654283
0.01737573583252506
0.1420863030419189
-0.03959333166158767
0.06570821841281595
0.4672715509785106
0.02052154827311433
-0.08492970555981015
0.05481805558010489
0.1260787662952541
-0.2600683859329519
-0.2309512415821834
0.5597276742105257
0.1569080255326413
0.07876818145949474
0.07469802451371464
-0.03107313005803814
-0.003010234756725928
-0.00211331612349057
-0.03259422256148784
0.1706293762893732
-0.1775394563046256
-0.05967764977117811
0.01945933565471222
-0.1471741350847608
-0.05282229337927721
0.1537852121049126
0.2770445730689786
-0.04048960328423237
0.009059423616941011
-0.2551683102607422
-0.1318041419014676
0.2363256561077104
0.1785002369629248
0.1295599258681875
0.02187750454293366
0.08841624480437262
0.05231930958527189
0.4521700717838129
0.01609659086539566
0.09804946068893569
0.04291177887094549
0.07236741576431822
-0.1152791935742952
-0.2429190610629879
-0.2003777470457985
-0.01966006594365019
-0.2018985373002853
0.2748283715702587
)
;

boundaryField
{
    FrontBack
    {
        type            empty;
    }
    Top
    {
        type            calculated;
        value           uniform 0;
    }
    In
    {
        type            calculated;
        value           uniform -1;
    }
    Bottom
    {
        type            calculated;
        value           uniform 0;
    }
    Out
    {
        type            calculated;
        value           nonuniform List<scalar> 10(1.035455693138256 1.064251366009371 1.022806105385238 1.021583390795178 0.9958350942516712 1.013404331184531 1.034459506018126 1.062930392673215 0.8672270536378599 0.8820473889010326);
    }
    circle
    {
        type            calculated;
        value           uniform 0;
    }
}


// ************************************************************************* //
