/*--------------------------------*- C++ -*----------------------------------*\
| =========                 |                                                 |
| \\      /  F ield         | OpenFOAM: The Open Source CFD Toolbox           |
|  \\    /   O peration     | Version:  2412                                  |
|   \\  /    A nd           | Website:  www.openfoam.com                      |
|    \\/     M anipulation  |                                                 |
\*---------------------------------------------------------------------------*/
FoamFile
{
    version     2.0;
    format      ascii;
    arch        "LSB;label=32;scalar=64";
    class       volScalarField;
    location    "1052.5";
    object      p;
}
// * * * * * * * * * * * * * * * * * * * * * * * * * * * * * * * * * * * * * //

dimensions      [0 2 -2 0 0 0 0];

internalField   nonuniform List<scalar> 
808
(
-0.03578988895524311
0.04506761266881042
-0.0119163533918175
0.03514858583332929
-0.3035172552971642
-0.05461276309800459
-0.01451900698958938
-0.02387525906927888
-0.1998953584549886
-0.08551815960610303
-0.009399387712838488
-0.2575181309537938
-0.03056945257279628
-0.0129304043003913
-0.1221898237744157
-0.01400151884569799
-0.1408902014757651
-0.01355914412093327
-0.01253192883640913
-0.05690114255510315
-0.005864582051187989
0.1182378735675969
-0.06090355873735443
-0.07329400289182854
0.1763674243651484
-0.0993094595376168
-0.1550722739693217
-0.02030731714051671
-0.01738408280900948
-0.02603788630247591
-0.02016270171247954
-0.05979565938454554
-0.02298063942456956
-0.01684154316155961
-0.1009534047028535
0.3441390571089547
-0.03855232413984352
-0.01683781450300441
-0.02329082457352869
-0.02659019376328474
-0.09175580176871313
-0.1288282083403637
-0.05079109092471645
-0.02061477245586855
-0.0549717815614599
-0.03994513066120733
-0.0123793846945578
-0.1873415019731088
-0.02757750074822796
-0.207185878446038
-0.01606550813936561
-0.06885612352027386
-0.05952312082453597
-0.01484400058542354
-0.1904818119985602
-0.02897802241472031
-0.010688326341726
-0.01442608212187686
-0.1022503270610192
-0.04066689031964438
-0.09594743464722873
-0.1284404870219452
-0.01338600268606076
-0.1299377010064241
-0.01691155169448784
-0.05060565830807892
-0.1666233142177874
-0.0356829816577927
-0.01488684817420189
-0.445831543975846
-0.02700434266353027
-0.3078634991645217
-0.02202489289232073
-0.02032141820360893
-0.06703146580897665
-0.01735890350611196
-0.0435116830761143
-0.3598248999339614
-0.03543158942353776
0.04182172497844108
-0.090574218651796
-0.0173022869457816
0.0567894863838722
0.04361777513412748
-0.0165658517485798
-0.05325036660767289
-0.5487143439692732
-0.2230177902423674
-0.0533688401137809
-0.1116085215675726
-0.05794515335103868
-0.1347321073470246
0.0406541841062428
-0.023901446316524
-0.06057210304810635
-0.1188642750121208
-0.038509862834222
-0.05211430413522578
-0.1179823023413052
-0.1396141296042871
-0.05207253223061185
-0.0483933282922542
-0.05557642977010588
-0.04576503372894489
-0.05792188944119071
-0.07326919476203254
-0.04160149513757019
-0.01130026427847413
-0.04109181331887081
-0.1265255824492879
-0.05127032114419403
0.08325955979923358
-0.04314506737547712
-0.008181017010505621
-0.0278545200052908
0.1801920937185303
-0.03983566637623787
-0.2733668339514173
-0.02028398098771979
-0.05480028746766723
-0.02668337651301972
-0.04783176704611977
0.01261738540161684
-0.05001491400013884
-0.0340880298515757
-0.2144144171780099
-0.04278218085506855
-0.005152917358579805
-0.07762060889024179
-0.06757553487888776
-0.1458779734889044
-0.02089295781290201
-0.07644610178536176
-0.04124049026244471
-0.02272028754397333
-0.01658485181773886
-0.006458870453475899
-0.007330726060687738
-0.05315615134274038
-0.05092590732972787
-0.210672465949791
-0.05802404715126766
-0.008577857888450882
-0.02278571050469826
-0.1449203010539626
-0.002487447470003455
-0.0776959723980999
-0.02360563550966382
-0.001209547783061974
-0.01058956662018354
-0.03391637080704057
0.09544553149761555
-0.03976340893732743
0.2526773604203902
-0.2667481491919781
-0.1303900107195896
-0.03711555337486229
-0.09123316240558112
-0.009255278874711339
-0.1118086629836108
-0.1862196726708095
-0.2156343552704349
-0.1821197379446485
0.05541623675712406
-0.06184725122061147
-0.02029090228124692
-0.06791475791419951
-0.1707918870737792
-0.0239212382910722
-0.01846254939626879
-0.05326218911576103
-0.01812280138437057
-0.005989946162521339
-0.1102333454840839
-0.02275130623632717
-0.04657262231308295
-0.06881136748630273
-0.1636296080176503
-0.03375216312502069
-0.3961044212064028
-0.01781082701629774
-0.2225730977608776
-0.04542021251075423
0.03068399634757367
-0.1055020475933935
-0.01421247937437094
-0.04159297914646244
-0.105500441959472
-0.01767975831104032
-0.09682942527612919
-0.2060167152156391
-0.07289920548926507
-0.02369324897743161
-0.04976505320347663
-0.04381430414760406
-0.2045951525824544
-0.02183468422278228
-0.01894859823836504
-0.01136684792456841
-0.05466056212000096
-0.05198442481238919
-0.02238341475276775
-0.02086921787792357
-0.2478438359959235
0.1279747470797135
-0.200731896432191
-0.2073234518905971
-0.01179422458592161
-0.01161639961920625
-0.06770428560259306
-0.009574042896421938
-0.5149330018391974
-0.1216278489533306
-0.01893070279573691
-0.001085325679548399
-0.02430289872965712
-0.2870085658448409
-0.2741659619210739
-0.007047578072691994
-0.0175492043649151
-0.001907590071460275
-0.3446704023550137
-0.02824966297495112
-0.02913673111575933
-0.01248859341251477
-0.01979002818773762
0.0509674705512231
-0.1073487796431268
-0.01386965655840931
-0.02073420147120595
-0.04300311967441193
-0.01818822658349042
-0.0161203090155846
-0.02336868627153982
-0.06692070635653943
-0.01186534031490641
-0.01908301677170923
-0.008502199797288704
-0.000755916847857209
-0.02957372966681045
-0.00154926742223792
-0.002301024176149565
-0.006064993813663733
-0.02562999999296072
-0.007984709348530662
0.001540959343353699
-0.004196149246110508
0.001194772224096888
0.002541862650977536
-0.008608581661345453
-0.143099656616808
-0.003031829123343386
-0.001430377057659377
-0.04850694352775166
-0.02154002199706467
-0.02490970339011415
-0.014402016572837
-0.006098257844404282
-0.02085584008435801
-0.03743285452682919
-0.0139476415035097
-0.01284661306725807
-0.01185466692374831
0.007229691147416392
-0.01030347470941556
-0.01186566513441854
-0.01132365334854182
-0.01081319712302956
-0.01013143347926497
-0.01166681923283254
-0.01414975590353214
-0.3115514716703599
0.06097951532720969
-0.01554243520469609
-0.01640784771318382
-0.01310163062746917
-0.01223152283543098
-0.008803520262967126
-0.09746710000309811
0.009417439805925932
-0.01368296026144322
-0.01472691240450026
-0.01079393055439876
-0.05323710070819826
-0.01008995728361827
-0.01378989194303481
-0.00942000559647138
-0.0004674795979480738
-0.009852833470117471
-0.0113302548434607
-0.02490855380274041
-0.01619318451613403
-0.01184149750620295
-0.01337337481955968
-0.007590798658470029
-0.01267800708695292
-0.01171966121197631
-0.05725285206534399
-0.01301584004987476
-0.01127374881632702
-0.008675885689968951
-0.01484676593126956
-0.01390240416230137
-0.01572009032219358
-1.378831626080603
-0.09829173192077786
-0.01330661344791882
0.0238919064707094
-0.16538244399267
-0.09251240883794107
-0.01142901372046662
-0.01404973131406999
-0.2525965207941334
-0.03076174876087195
-0.0203790462630981
-0.01089763797042636
-0.01961538240522384
-0.01083511126670109
-0.03069939298748553
-0.4156395253506531
-0.0123645617497776
-0.01410490842042933
-0.004904840303570619
-0.01073684027578279
-0.009942653119288342
-0.01435286847024573
-0.008677639820305042
-0.02606977108642522
-0.0113243141275608
-0.1625029977092909
0.01720604000502666
-0.007739140773566696
0.003231811351519042
0.013514676523083
-0.04725268372612359
0.02989309187074933
-0.01299653704295249
-0.1354908633316776
0.2820482988542111
-0.007205136936307221
-0.01324144141047552
-0.008437815392640567
-0.0329956574901183
-0.1223289702320512
-0.01277589741638151
-0.01237979202162904
-0.01683133147819194
-0.01361026901973914
-0.04094459387015993
-0.2139457965989011
-0.01144265459705444
-0.04116334204402798
-0.03999098457596286
-0.1652667961904086
-0.165767382717691
-0.1382024892554576
-0.2520796679944051
-0.007371618853156575
-0.02131272324645832
-0.01415874944209546
-0.01260660661279063
-0.03282870420771227
-0.02440345696990453
-0.01449959304160696
-0.01501387330806469
-1.082359267004037
-0.006011580802589419
-0.01362809043349053
-0.01849961769884411
-0.02086485528617673
0.00116328084532841
-0.01428337957329063
-0.02780335863787321
-0.1620899209660739
-0.01359596445736146
-0.0223022723787899
-0.01376775124039766
0.0007370779046095291
-0.1796130303933012
-0.01332397142896253
-0.1409945355726919
-0.01611943317790164
0.007741323355150014
-0.01465914326472994
-0.02305588339749026
-0.01557735989129324
0.004848344978726134
-0.2791216032136964
-0.02544231746387277
-0.01592605676260514
-0.002527496384127651
-0.009307306339704195
-0.03061532643125321
-0.01441929224260611
-0.02032520874172323
-0.02142143261449998
0.01365512166481483
-0.1010717678286642
-0.02217151837226825
0.009160123467592268
-0.05104166850577104
0.1586979338878714
-0.1027741535681461
-0.3214573348068201
-0.03084609932071046
-0.0253798563219878
0.1491713065626399
0.08193113252074587
-0.003321957178652366
0.04917601641503113
-0.01565558511340213
-0.01470288772457947
0.002198803344201183
0.01189362656424554
-0.06711420060220287
-0.00587274787949141
-0.05770256381648631
-0.02210611882452626
-0.0157248918307713
-0.0365341776862815
-0.03291436789219544
-0.006637790773734523
-0.01509035459110143
-0.03927130796511846
0.03789954799370297
-0.03890488539690719
-0.01361122960805005
-0.1161112383897327
-0.0321068924088273
-0.03844491522775054
-0.6779649606506453
0.01972684499076947
-0.01083906102065022
-0.005423689636691499
0.1583946586283928
-0.08325927547032802
-0.03489301763353227
-0.2473217380973848
-0.01675215174113159
-0.01663938503054779
0.06267674974494929
-0.1848644005778357
-0.2281897808179519
-0.1988052846395766
-0.6871949961041494
0.003494990376913257
-0.01865850196745237
-0.01690031793313713
-0.07789349566965907
0.1177149593204344
-0.0209622505014265
-0.2421012783285263
-0.03487896760201786
-0.006448313528825533
0.2775857879624763
-0.01132948757334275
-0.0939041940899628
-0.1487336545091484
-0.004424488557166596
-0.04032322099118026
-0.04922434690802402
-0.2067931318482405
-0.008837238463532076
-0.0422445929753054
-0.0024186553447785
-0.5515181297929662
-0.1999216190184193
-0.175533558633838
-0.02264923521519489
-0.006816510283811998
-0.05983171124571431
-0.05833764973521508
-0.01441600011924234
-0.06740249356927244
0.003037341475836665
-0.01842515680612946
-0.09471295699108846
-0.2665571191851154
-0.007340595874713322
-0.02648117711044203
-0.02215018774577529
-0.07406887014005067
-0.09124408515445652
-0.08764314231717107
-0.01180905099355419
-0.9284473769971325
0.160696251244505
-0.07900656014258649
-0.2570284437810572
-0.0426682409150866
-0.01052725809286571
-0.2532885410312934
-0.1838256106787659
-0.03331447823068628
-0.1286646412257917
-0.01928309846934532
0.5628957214649184
-0.02378340441226713
-0.2302607090194159
-0.0262392161038916
-0.005706424938130339
-0.01201925744266045
-1.253927882261669
-0.1830241834088986
-0.2339819526831947
0.005386273812892571
-0.0371626227331199
-0.2542108511074241
-0.06527354970488775
-0.05085300281017653
-0.141861843609935
-0.1911378017194779
-0.06763435932683895
-1.230918217820125
-0.1421230441641356
-0.5183530555267262
0.07835835336807363
-0.006856458349378069
-0.02204147181354957
-0.04243414357393598
-0.04075891110984527
-0.02891445276877485
-0.1313920588127378
0.0798026819153923
-0.002412785080327697
-0.009784479105243606
-0.5818892535322611
-0.8653465689942549
-0.1863363879213877
-0.008309969800106757
-0.138885611668765
0.001118341967280344
-0.0005750039647745502
-0.001793071471859154
-0.0598715815998337
-0.2393320101525809
-0.01340658006263473
-0.1251757436709784
-0.1555412032029331
-0.01324513773563196
-0.03600089072446969
0.02188714171587172
-0.05716046748482785
-0.06952408269282258
-0.5040456066837513
-0.2362629128987367
-0.08093041848572118
-0.07234394210100228
-0.01998407928106273
-0.1245523708883454
-0.1518438383993537
-0.07427823685130561
0.02314656152723445
-0.08417975725916189
-0.0478907079975512
-0.01489667755768326
-0.1061570594462052
-0.2716133039870638
-0.05658949252579615
-0.01855110169551017
1.610524938800644e-05
-0.00999991537274088
-0.01118322759939396
-0.2161382185148273
-0.01528834999710886
-0.2226412483047605
-0.01032410089359464
-0.06662830572578476
-0.003900517845249852
-0.02320141625519422
-0.3766699640212446
-0.9075832977922038
-0.01134594958394941
-1.049803018594918
-0.6148722499290531
-0.01066356541850126
-0.6560976356630435
-0.1760738855357042
-0.005936209818719448
-0.1312959536128768
-0.0169257778092216
-0.1214836075309386
-0.06753916938560083
-0.07743058826961487
-0.005074188005684976
-0.002450383727089638
-1.336564259598207
-0.01117881081130318
-0.1827723132384688
0.0004891824690680392
-1.012478503117199
-1.231937488579353
-0.08178092552344447
0.01977222268655613
0.1643122227997223
-0.004614426994888516
-0.02305223045061743
-0.004191339455111271
-0.2540113988767299
0.366172427659498
-0.04073936801682588
-0.2101714508035206
-0.01487392672634717
-0.6560116110677674
-0.07526026320071988
0.1910593932467942
-0.2828019105001062
-0.04966160907159384
-0.06857659694907514
-0.01590701298873914
-0.02178020597127902
-0.5737618297940815
-0.1440535433691058
-0.08520885953003007
-0.1291353103231795
-0.5567039095165117
-0.04402095499255683
-0.9088644735339201
0.0001620143432672643
-0.2371909947847488
-1.048137326153715
0.1678874724274449
0.2918013421484423
-0.1846971953815463
-0.1932874550671647
-0.2075254853087282
-0.0682378786948106
0.02233595626395622
0.04849627733366329
0.003573015209280271
-0.1680064856609576
0.02551738942883004
-1.354698522559135
-0.08490587099981037
-0.4724197238861506
-0.3297300489643215
-0.2026674341864837
-0.1758315777619558
-0.01690588176625088
-0.01547489736142711
-0.1078358590814131
0.1712908607161923
0.3855621259573933
-0.2141562474547468
-0.1386857247466449
-0.2371905941587753
-0.0623174706706578
-0.1492310398452754
-0.1622359351785883
-0.1253531244299313
-0.1241961181167211
0.4660843628532022
-0.2679675306363258
0.4312865527529943
-0.6007529231703571
0.07053420839329728
-0.2050341717653058
-0.06588636622221017
-0.07397613261309606
-0.8767922894000528
-0.2205115468207848
-0.1899068324493405
-0.3456718744667976
-0.4565352184088937
0.5706338053908535
-0.2069462042888976
6.357456663829289e-05
-0.0708733349655479
0.3437532517002908
-0.03770723540053688
-0.1322921910107566
-0.178848840396981
-0.06341284356840397
-0.01655427809095407
-0.1945737298245946
0.1939536942278053
-0.01287246708063419
-0.095921882798279
-0.1684671580762868
-0.3148090073778251
-0.3139740347260988
-0.06361927179065349
-0.01033392697133984
-0.0784659836122694
-0.6552685020238841
-0.6691313097795026
-0.3395406164759198
-0.05748095695511368
-0.05212797989595322
-0.02555351621296012
-0.0673192958885053
-0.05806461571233923
-0.357602042261052
-0.9562386818116065
-0.01047304390203951
-0.08262596004359439
-1.136357194806962
-1.030241313077126
-0.1047848767124726
-0.0383446912744325
-0.07017922561809019
0.3904536644018737
-0.3448090441115912
-0.05017130581532245
-0.5973903090739426
-0.1213040093117312
-0.2536308689373473
-0.2097938704318097
0.4741737785813848
-0.6264236644521093
0.07342330610416999
-0.0296464279169384
-0.5563503368369834
-0.05124778068728705
-0.3607514027691505
0.1069315345390644
-0.1895667605579084
-0.05957720279461267
-0.1391995202698233
-0.3626122586106084
-0.0880662080134485
0.5144840200846572
0.08524889472783292
0.4708656311474545
-0.1025145020412601
-0.1992225571919393
-0.5235574344624796
-0.1305027595079555
0.02706028170567423
-0.05327776157703304
0.1027599995919774
-0.3073929095272671
0.2362261276045295
0.008570124922830066
-0.003297745539416438
-0.5143110188031105
-0.1860781098766644
-0.08108635592662775
0.5815508120583081
0.1383541243028156
0.3455131401820432
0.225818646410067
-0.5604221453971399
-0.2007994741419888
-0.2223235279520474
-0.2347865683124817
-0.06004454830246119
-0.6956185791933825
-0.1940732517384116
0.3061664101480998
-0.1995904582002526
-0.01124080306341261
-0.1722604129595265
-0.009238570472713713
-0.1562183404985409
-0.4333874936440618
-0.07659247610906489
-0.1981912647769653
-0.07091776017414307
-0.0866268633766617
-0.146706328594485
-0.07328356843249019
-0.4564301058764373
-0.4157111695046735
-0.02627173865161352
-0.0741167439321716
0.3274452951384644
-0.2459604504464966
-0.1856818480453603
0.5253804191891713
-0.2089202297059246
0.01784122474016039
-0.448090409528092
0.04704717532861887
-0.06233869636426147
-0.145992093904727
-0.5811380100614071
0.1614858358016698
-0.5817351292462394
-0.5327865772385642
-0.1058724610793868
-0.5060968578183457
-0.03747943333477281
-0.1385086787288964
-0.4092357274525242
-0.01632416576713343
0.2866053913919988
0.4895602798935869
-0.1578325837367534
-0.008347687603936742
-0.07487638101839822
0.525327858699934
-0.03353039224173512
-0.4373381836133823
-0.03289328045704077
0.4606943849129326
-0.01456394697331688
-0.5416897783501352
-0.2471829090944468
0.1759005565103595
-0.3089476901019847
-0.1779428625228612
0.05138711242051473
0.03386615846852311
0.05414318594699329
-0.2977247315712517
-0.1578334512413467
0.412761960094312
)
;

boundaryField
{
    FrontBack
    {
        type            empty;
    }
    Top
    {
        type            zeroGradient;
    }
    In
    {
        type            zeroGradient;
    }
    Bottom
    {
        type            zeroGradient;
    }
    Out
    {
        type            fixedValue;
        value           uniform 0;
    }
    circle
    {
        type            zeroGradient;
    }
}


// ************************************************************************* //
