/*--------------------------------*- C++ -*----------------------------------*\
| =========                 |                                                 |
| \\      /  F ield         | OpenFOAM: The Open Source CFD Toolbox           |
|  \\    /   O peration     | Version:  2412                                  |
|   \\  /    A nd           | Website:  www.openfoam.com                      |
|    \\/     M anipulation  |                                                 |
\*---------------------------------------------------------------------------*/
FoamFile
{
    version     2.0;
    format      ascii;
    arch        "LSB;label=32;scalar=64";
    class       volScalarField;
    location    "43";
    object      p;
}
// * * * * * * * * * * * * * * * * * * * * * * * * * * * * * * * * * * * * * //

dimensions      [0 2 -2 0 0 0 0];

internalField   nonuniform List<scalar> 
808
(
0.121961
0.0450781
0.0393666
0.120756
-0.291215
0.0420359
0.0330477
0.0337812
-0.161538
-0.0190156
0.0308182
-0.188566
0.0319565
0.0365623
-0.201273
0.0313908
-0.213366
0.0341594
0.0643843
0.0295019
0.0720534
0.394882
0.102601
0.00153389
0.474178
-0.150126
-0.0826903
0.0182095
0.0334392
0.044689
0.0263618
0.0338058
0.0399378
0.0349401
-0.0683241
0.625805
0.044069
0.0541854
0.040093
0.0324366
-0.0377521
-0.0759832
0.0645338
0.0467901
-0.220386
0.119202
0.0455423
-0.0190396
0.0396972
-0.200073
0.0400674
0.0187516
0.0751656
0.0206089
-0.0437723
0.0390481
0.0134734
0.0452211
-0.0252649
0.0340991
-0.358252
-0.0189187
0.0395771
-0.159391
0.0484832
0.0749756
-0.306531
0.0342756
0.0676733
-0.349237
0.0439804
-0.39905
0.0370534
0.0417232
0.157818
0.0574909
0.0281482
-0.0306997
0.0388622
0.33827
-0.09129
0.0399567
0.0556145
0.261626
0.0643882
0.0107843
-0.441316
-0.0633898
0.0445547
-0.153295
0.048482
-0.112854
0.277522
0.184499
0.0676706
-0.222261
0.0274661
-0.125235
-0.107763
-0.222626
0.0467131
0.031223
0.0534822
0.0204344
-0.011484
0.0892523
-0.278605
-0.0199048
0.03641
-0.000136971
-0.00301427
0.352939
0.0416315
0.0351929
0.0381649
0.450743
0.0378303
-0.334635
0.0423601
0.0671454
-0.254783
0.0660197
0.0362427
0.0659643
0.140332
-0.0105869
0.10252
-0.00615783
0.0283339
0.0961529
-0.363039
0.0321378
-0.023472
0.153539
0.0409074
0.0371942
0.0905798
0.0336415
0.0438078
0.0327501
-0.231171
0.0501783
0.0728189
0.0424424
0.00764416
0.0434637
0.100154
0.154876
-0.0882897
0.0156133
0.0414
0.364476
0.0481889
0.548755
-0.2714
-0.057834
0.0428505
-0.220264
0.101333
-0.0786362
-0.383955
-0.242728
-0.376177
0.0408268
0.0898767
0.0421583
0.042175
-0.408696
0.0369534
0.0467472
0.0523351
0.18644
0.0605803
0.0952863
0.0477285
0.0743069
0.0995842
-0.17184
0.0451889
-0.436023
0.0432602
-0.0939968
0.0380796
0.253374
-0.297026
0.146792
0.0491968
-0.109481
0.050786
-0.07444
-0.243007
-0.0312912
0.0420878
0.0796869
0.0395404
-0.202803
0.0437603
0.034663
0.00581038
0.109823
0.0741434
0.0297924
0.0416235
-0.420972
0.386992
-0.203249
-0.369943
0.0174116
0.0127926
0.0410315
-0.0175788
-0.498611
-0.282152
0.0450402
-0.015959
0.0376214
-0.414456
0.00217294
-0.0325146
0.0185785
-0.0164674
-0.0450897
0.0408394
0.0378771
0.0104562
0.0437278
0.154801
-0.270285
-0.0325554
0.0311833
0.146461
0.0295663
0.0295956
0.0268935
-0.0882696
-0.00713505
0.0124938
-0.00315624
-0.0322861
0.0223714
-0.0115491
0.00143549
-0.0197115
0.00868866
0.00541628
-0.000768562
0.0142544
0.0106984
-0.0191092
0.0757062
-0.394334
0.0151587
0.0532012
-0.00392458
0.0320066
0.0322198
0.0329701
-0.0128046
0.0334605
0.154764
-0.00621032
0.0305492
0.0216537
-0.11953
0.0522538
0.0153294
-0.0198885
0.0453003
-0.016023
0.0246382
-0.0376014
-0.497468
0.298533
0.0546874
-0.0692091
0.0274054
0.0428195
0.0402745
-0.143788
0.252666
0.0261057
0.00460462
-0.0670366
0.0913705
-0.217028
0.0465014
0.0534087
-0.0738298
0.0161598
0.0599461
0.0425508
0.0415621
-0.0261823
-0.0217166
-0.0151161
0.036817
-0.00353461
0.0881545
0.0128166
0.0189766
-0.0189233
0.0366026
-0.0429648
0.0426931
-0.591994
-0.0600677
0.0355045
-0.122626
-0.189608
-0.355152
0.0496731
0.0334217
-0.374294
0.126356
0.149991
0.048227
0.0456981
-0.0258148
0.0116327
-0.277376
0.061306
-0.00199283
0.0577009
0.0635855
0.00886744
0.0547817
-0.0689052
0.0289363
0.0207603
-0.308068
-0.0209438
0.032862
-0.121344
-0.105248
0.0411172
0.256014
0.059052
-0.154494
0.54637
0.010228
0.00955415
0.0513224
-0.066993
-0.0118311
-0.0369665
0.0610517
0.0261878
0.0549868
-0.0267997
-0.189709
-0.0687647
0.135579
0.0140227
-0.286145
-0.381094
-0.34313
-0.386633
-0.0345283
0.0410137
0.0455518
0.0456924
0.00592727
0.0211265
0.0482723
0.00728902
-0.587941
0.00342675
0.0350484
0.0465062
0.0728031
0.0181242
0.0188209
0.113512
-0.450352
-0.00986974
0.0209419
-0.0366813
0.107941
-0.325556
0.0232514
-0.253056
0.019019
0.0457643
0.0525392
0.0392347
0.0452426
-0.0558089
-0.434792
0.0315423
0.047399
-0.0476507
0.0941193
0.0286131
0.0369581
0.0276321
0.0205952
-0.0475189
0.0246977
0.0273929
0.043377
-0.0737167
-0.289006
0.0967539
-0.0506156
0.0205739
0.0111661
0.411769
-0.233409
-0.00627527
0.012339
0.0290155
0.0110685
0.052094
0.0745517
0.0076198
-0.076364
-0.00808048
0.0259332
-0.00260173
-0.005796
-0.0117412
-0.00980926
0.0299335
0.112788
0.0534301
0.0246937
0.0218087
0.0566043
0.0205575
0.0548714
-0.445486
0.078156
0.0647916
0.00888086
-0.20867
-0.315788
0.0135867
-0.122459
0.00581339
0.049306
-0.423005
-0.271433
0.26395
-0.413045
-0.53485
0.0512761
-0.0972855
0.0265843
-0.241785
0.350194
0.00809335
-0.341187
0.033166
0.0531899
0.557144
0.0308241
0.0058594
0.0826445
-0.0242348
0.017936
-0.445228
-0.206874
0.0373885
0.0653047
0.0244558
-0.31877
-0.398949
-0.166223
0.0513545
0.0719903
0.122715
0.0122206
0.0115994
0.10856
0.036811
0.0402547
-0.103941
-0.230316
0.0910243
0.0225606
0.040106
0.0444435
0.0824277
-0.0152715
0.0411262
-0.56162
0.444271
-0.101184
-0.315069
0.0216054
-0.00625106
-0.287822
-0.271378
0.118246
-0.420901
0.0413014
0.869388
0.0401123
-0.450641
0.0309408
0.0266393
-0.00812499
-0.529635
-0.280928
-0.383844
0.0245284
0.0444641
-0.454817
0.0208737
0.00647539
0.137604
-0.425518
0.062195
-0.591173
-0.263141
-0.321619
-0.00102667
0.0110289
0.0283041
0.136029
0.120945
0.0233424
-0.319184
0.29749
-0.0140408
-0.000432205
-0.535288
-0.590346
-0.431621
-0.0295136
-0.439497
-0.0222291
0.141138
0.114354
-0.0151182
-0.281562
0.0167694
-0.359467
-0.200807
0.0116353
0.0290708
-0.435709
0.0212557
0.0671583
-0.465856
-0.393089
-0.0483989
0.13456
0.0439393
-0.410818
-0.252249
-0.106694
0.0444557
0.0742133
0.130294
0.0151849
-0.242991
-0.226031
0.13436
0.0442537
0.0491635
0.048593
0.0651907
-0.269349
0.0219727
-0.321077
0.066735
-0.378745
0.131198
0.00287842
-0.299903
-0.389902
0.00449879
-0.546679
-0.55311
0.0656747
-0.0281034
-0.262584
0.0399034
-0.338126
0.0220318
0.116197
0.0610109
-0.434339
0.00817134
0.14809
-0.393885
-0.0018063
-0.323471
0.0401448
-0.375636
-0.444571
0.078286
0.303672
0.444868
-0.0235257
0.00518779
0.00245583
-0.435412
0.659399
0.0457934
-0.152284
0.0363493
-0.116872
0.0696975
0.511153
-0.306381
-0.0182441
-0.0116663
0.0364481
0.039514
-0.38683
-0.297675
-0.331029
-0.29344
-0.333833
0.0286767
-0.422963
-0.0555715
-0.203375
-0.260367
0.544043
0.617312
-0.203933
0.0776122
-0.27216
0.000650152
-0.0473232
0.440998
0.0295575
-0.40481
-0.109759
-0.446
0.0112807
-0.144995
0.0224595
-0.25074
-0.193727
0.00332157
0.0054969
-0.412097
0.426812
0.695564
-0.435002
-0.251389
-0.427203
-0.0332782
-0.245682
-0.256845
-0.128424
-0.406593
0.780808
-0.277011
0.738373
-0.497452
0.312497
-0.404172
0.0385852
0.210251
-0.435402
0.189012
-0.198429
-0.246067
-0.275926
0.889327
-0.28654
0.198235
0.127567
0.635355
0.11341
-0.290007
-0.196911
-0.0295928
0.0206976
0.126471
0.502224
0.0168011
0.0141711
-0.254964
0.158513
-0.168845
-0.165239
0.0419666
-0.292897
-0.212562
-0.109268
-0.465327
0.0379558
0.100742
0.0263377
0.111332
0.0941325
-0.264209
-0.303118
-0.00977473
0.0469918
-0.405374
-0.449111
0.214707
0.227324
0.094246
0.696484
-0.127138
-0.430957
-0.327046
-0.236898
-0.102278
0.12271
0.782591
-0.388473
0.350616
0.0264325
-0.360603
0.188566
-0.031106
0.363557
-0.102163
0.0478975
-0.4234
-0.127096
0.160339
0.814574
0.325617
0.783555
-0.393022
-0.220467
-0.510698
0.204759
0.298402
0.0941738
0.413003
0.0970558
0.502548
0.309828
-0.0670104
-0.245279
-0.00614237
-0.359947
0.897012
0.407257
0.679167
0.523489
-0.216028
-0.412486
-0.264005
-0.33959
0.07928
-0.477196
0.063764
0.621832
-0.464871
0.0135343
-0.343878
0.216972
-0.264896
-0.302409
-0.054566
-0.214166
-0.305414
-0.318739
-0.431926
-0.0442542
-0.517146
-0.186398
-0.43832
0.18221
0.643798
-0.161569
-0.421691
0.84993
-0.416474
0.261431
-0.179976
0.362863
0.0852655
-0.404533
-0.333044
0.476759
-0.339151
-0.265264
0.157428
-0.223421
0.0276084
-0.242995
-0.0721547
0.0221038
0.562062
0.787866
-0.248233
0.212527
-0.335041
0.835703
0.0285357
-0.2524
0.0296404
0.763961
0.240135
-0.260752
-0.24978
0.439663
-0.156924
0.0784918
0.385877
0.284344
0.28275
-0.194661
-0.239821
0.696576
)
;

boundaryField
{
    FrontBack
    {
        type            empty;
    }
    Top
    {
        type            zeroGradient;
    }
    In
    {
        type            zeroGradient;
    }
    Bottom
    {
        type            zeroGradient;
    }
    Out
    {
        type            fixedValue;
        value           uniform 0;
    }
    circle
    {
        type            zeroGradient;
    }
}


// ************************************************************************* //
