/*--------------------------------*- C++ -*----------------------------------*\
| =========                 |                                                 |
| \\      /  F ield         | OpenFOAM: The Open Source CFD Toolbox           |
|  \\    /   O peration     | Version:  2412                                  |
|   \\  /    A nd           | Website:  www.openfoam.com                      |
|    \\/     M anipulation  |                                                 |
\*---------------------------------------------------------------------------*/
FoamFile
{
    version     2.0;
    format      ascii;
    arch        "LSB;label=32;scalar=64";
    class       surfaceScalarField;
    location    "43";
    object      phi;
}
// * * * * * * * * * * * * * * * * * * * * * * * * * * * * * * * * * * * * * //

dimensions      [0 3 -1 0 0 0 0];

oriented        oriented;

internalField   nonuniform List<scalar> 
1171
(
-0.944964
0.944964
0.759308
-1.0605
0.301196
-0.0259665
-0.775146
0.801112
0.0550362
-0.0800905
-0.275675
0.355766
-0.759308
0.0761555
0.683152
0.89319
-0.203292
-0.689898
0.828368
-1.06102
0.232655
-0.347551
-0.0527615
0.400313
-0.0143024
0.59904
-0.584737
-0.701587
1.00117
-0.299587
-0.427642
1.00528
-0.176911
0.233938
0.102914
-0.336853
0.956812
0.0484672
0.311227
-0.0772883
0.981288
-0.0244753
0.789709
-0.815676
-0.774174
0.601919
0.172256
0.0735635
-0.775151
0.551409
-0.911376
0.359967
-1.07778
0.666777
0.411004
-0.641932
0.62763
0.0290086
-0.249567
0.220559
0.0295618
-0.651705
0.622143
0.457365
-0.510126
-0.863965
0.917926
-0.0539608
1.00768
-0.0263904
0.917876
-1.08532
0.167439
1.01319
-0.00550985
-0.692729
-0.0814452
1.30198
-0.882122
-0.419854
0.149223
-0.0909232
-0.388156
0.479079
-0.275806
0.189012
0.086794
-0.591405
-0.469099
1.006
-0.0881253
-0.0315087
0.880604
-0.849096
0.513231
0.788746
0.508117
0.00609591
0.451269
-0.782678
-0.113118
0.895796
0.57876
0.260518
-0.839278
0.00246059
0.680015
-0.682475
-0.506924
-0.570858
-0.385203
-0.700113
0.0139778
0.25538
-0.269358
-0.952164
-0.0364138
0.988578
0.362567
0.037746
0.822177
0.0710133
-0.592517
-0.0494156
0.0412774
-0.823955
0.0552665
1.00978
-1.06505
-0.403951
0.0268928
0.377058
-0.712978
-0.239187
-0.81117
0.866437
0.776666
0.224508
-0.578641
0.994203
-0.811507
-0.182696
-0.132192
0.0838364
0.0483552
-0.452782
-0.0573444
-0.31526
1.09193
0.0272282
0.396308
-0.423537
-0.56273
1.14149
0.703255
-0.816373
0.378578
-0.0403615
-0.338216
0.791695
-0.791695
-0.862317
0.0514341
-0.327109
-0.693018
0.661509
-0.0486906
-0.152176
0.200867
0.877916
0.00268773
1.06235
-0.801837
0.222306
-0.322716
0.10041
0.911996
-0.0898193
-0.662541
-0.0589087
0.721449
0.149307
-0.231127
0.08182
0.781779
-0.985072
-0.436757
0.308517
0.12824
0.681264
-0.651703
0.885579
-0.40404
-0.481539
0.500376
-0.695047
0.0359141
0.659133
0.0727183
0.651866
0.0423382
-0.694204
0.150185
-0.0987508
-0.509366
0.105415
0.0353251
-0.895519
0.860194
-0.548791
-0.74955
0.0568208
0.490527
-0.039258
0.276868
-0.834208
0.557339
0.423788
0.576212
0.600595
-0.559318
-0.405806
0.0369149
0.368891
0.551774
0.239921
-0.697728
0.700188
0.102371
0.857935
0.00701215
-0.669553
-0.760273
0.795598
0.592958
0.115214
0.311847
-0.427061
-0.157177
0.583509
0.0965059
0.814786
-1.00399
0.189201
0.658746
0.335457
-0.438804
0.680073
-0.564858
0.407748
0.143661
-0.0542317
-0.648592
-0.281636
0.930227
-0.12388
-0.667815
-0.61644
0.363736
0.252704
0.656283
-0.649271
0.307075
1.04921
0.013147
-0.760273
-0.0883837
-0.0438079
0.703255
0.783663
-0.783663
0.838699
-0.822373
-0.0163255
-0.455591
0.87938
-0.192706
-0.31666
0.761957
-0.673764
-0.0881927
-0.980276
0.331684
0.118344
-0.710861
0.816373
-0.973551
-0.251859
0.186572
0.0652872
0.106821
-1.01827
0.911444
0.532352
-0.0242357
-0.291162
0.595347
-0.304186
-0.662578
0.7694
-0.155224
0.590662
-0.790451
0.199789
1.02123
-0.628
-0.393226
0.729431
-0.0676342
-0.0133707
0.0115681
0.0018026
-0.798965
-0.65356
-0.121586
-0.693018
0.57482
-0.547927
0.324646
0.557245
-0.881891
0.776598
0.168366
0.492712
0.507288
-0.183777
-0.6746
0.858378
1.00017
-0.185388
-0.729431
0.795598
0.183429
-0.432996
-0.0110355
-0.0065322
0.0175677
0.677065
-0.435675
-0.241389
0.683152
-0.0603321
-0.0628978
0.563796
0.113269
-0.0187166
0.00206405
0.0166525
0.00270643
-0.0160771
0.196857
-0.237219
-0.938887
0.030942
-0.143289
-0.0550022
0.139483
0.82623
0.742004
-0.165792
0.627726
-0.30308
-0.167877
0.390183
0.649431
0.0337212
0.234552
-1.05693
-0.973551
0.323309
0.661509
-0.176444
0.0242683
-0.857172
1.04254
-0.185371
0.483067
-0.106008
0.79256
0.304953
0.354864
-0.0436376
-0.680296
0.680296
0.236556
0.65924
-0.0389952
0.435304
0.440084
0.0385719
-0.0496075
0.52252
0.00983221
-0.662578
0.564413
0.197544
-0.00497467
0.0165427
-0.649431
0.149579
0.892964
0.0220312
-0.727441
0.70541
0.758324
-0.823299
0.0649744
-0.776598
-0.0517035
0.0695576
-0.0178541
0.0886241
-0.11914
-0.103528
0.222669
-0.0108682
-0.00784842
0.744852
-0.722821
0.979912
-0.178799
-0.1525
-0.731288
0.883788
0.00106873
-0.00106873
0.223487
0.589771
0.307467
-0.897239
-0.17997
-0.557108
0.737077
-0.0135555
0.214422
0.381208
-0.231901
1.06982
-0.480046
0.906555
0.938074
-0.630606
0.188502
0.7694
0.592489
0.253309
0.664617
-0.667815
0.319704
-0.00284574
0.0784389
-0.0755932
0.900518
0.205038
-1.10556
-0.568013
0.562504
0.544409
-0.568013
-0.592489
0.562504
-0.016463
0.984686
-0.00477419
-0.551774
0.466844
0.0849299
0.558489
0.704602
-1.26309
0.493598
0.576219
0.73962
0.530559
-1.27018
0.510818
0.427256
0.466844
-0.541756
-0.540541
-0.599387
-0.475355
-0.233206
-0.00967427
0.00967427
0.480686
0.5124
-0.987755
0.642448
-0.330601
-0.987591
0.359591
-0.69799
0.458803
-0.0989418
-0.822947
0.921889
0.450842
-0.206625
1.10714
-0.96367
-1.04716
0.234602
0.812563
0.548268
-0.331379
-0.216889
0.766543
-0.854668
0.994113
-0.854968
-0.139145
-0.202705
-0.801282
-0.225532
0.82363
-0.598099
-1.1649
0.9622
-0.555587
0.597064
-0.0414766
-0.584995
-0.224701
0.809697
0.00620916
-0.00514043
0.420529
-0.0304429
-0.885384
0.915826
-0.828954
0.645177
1.04563
0.23549
-1.28112
-0.00153657
-0.0399212
0.408812
-0.363389
0.0406728
0.870251
-0.969192
-0.763795
-0.864968
0.0636855
-0.0910917
-0.848024
-0.00694394
0.355798
0.271928
0.181922
0.366346
-0.797541
0.57284
0.481539
-1.02957
-0.929415
0.0552709
0.288317
0.558479
-0.846796
0.0738656
-0.475478
0.579572
0.178752
0.239062
0.86808
1.1968
0.911774
-0.918718
0.0512828
-0.0512828
-0.0879069
-0.188243
-0.143136
0.321165
0.00214332
0.294532
0.941946
-0.0025415
-0.00832666
0.656223
0.343777
0.797665
-0.591405
-0.768116
-0.641758
-0.508543
0.508543
-0.20868
-0.118429
0.698709
-0.859242
0.160533
-0.505056
-0.533744
0.305453
-1.00557
-0.839085
0.69994
-0.675701
0.739386
0.672528
0.155397
-0.827925
-0.683234
-0.185703
0.823728
-0.638026
-0.10286
0.00203775
0.00317061
-0.00520837
-0.301185
0.112942
1.00416
0.745214
-0.31175
-0.433464
0.528325
0.74534
-0.508784
0.0148998
-0.290706
-0.210408
0.865416
-0.655007
-0.333038
-0.128766
0.139145
-1.07215
-0.0334086
-0.703845
0.0983312
0.68876
-0.787091
-0.831461
0.127616
0.659951
-0.788717
0.236354
-0.355495
-0.665457
-0.017777
0.372456
0.684455
-0.00438199
-0.00186045
0.00186045
-0.00761022
0.0807906
-0.0836364
-0.0163197
0.0137782
-0.39353
0.320809
0.789599
-0.759773
-0.029826
-0.604092
0.702423
0.764632
-0.104681
-0.642425
-0.189037
-1.10444
0.0209523
0.0303305
-0.603938
-0.867956
-0.922116
0.502262
-0.0380124
0.0586124
-0.0206001
-0.230425
-0.373513
0.369568
0.711259
-0.0743409
0.0193386
1.08992
0.55288
0.140907
-0.693786
-0.417993
0.187568
-0.00838982
0.0104276
0.687244
-0.96888
0.0037804
-0.0037804
-0.746722
0.768309
-0.0215872
-0.236071
-0.155573
-0.683875
0.266146
0.592232
-0.065259
-0.869578
-0.494642
0.130947
0.363695
0.618958
-0.648784
0.362533
0.247422
-0.609954
-0.180712
-0.65326
-0.133831
-0.193842
-0.228496
0.460298
-0.517642
0.200571
0.734694
-0.935265
0.500376
-0.182762
0.144749
0.291903
-0.520399
0.592911
-0.0930948
-0.499816
-0.291305
0.310255
-0.0189497
0.577622
0.0648257
0.111372
-0.314878
0.171599
0.143279
-0.114544
0.0261604
-0.403743
-0.177359
-0.0625095
0.239868
0.873146
-0.15603
-0.0800406
0.546185
0.335261
-0.647011
0.424031
-0.424031
-0.214479
-0.405574
-0.225829
-0.405574
-0.778856
-0.851065
0.177301
-0.299166
0.753151
0.0449838
0.08516
0.599295
0.11185
0.128327
0.00553668
-0.133864
-0.168218
0.590425
-0.904667
0.173378
-0.17938
0.121188
0.0581924
-0.742707
-0.172262
-0.624615
0.765522
-0.507116
-0.190193
-0.330207
-0.336073
-0.0800671
0.0800671
0.0623592
0.00719834
0.149279
0.0847728
-0.662782
0.0381673
-0.100942
0.472184
0.527816
0.756549
0.0366721
-0.00992534
-0.0267468
-0.301991
-0.567587
-0.581444
0.117249
-0.121976
0.00472712
-0.175028
-0.409755
-0.152457
0.744688
-0.564954
-0.177753
-0.106356
0.0335973
0.332129
-0.676593
-0.203143
-0.223171
-0.0140477
-0.478032
0.435522
0.0425098
-0.156193
0.293255
-0.864113
-0.521949
0.57647
-0.874177
0.693465
0.395382
-0.0296208
0.0513828
-0.0217619
0.0536393
-0.634557
-3.74795e-06
0.634561
-0.88856
0.643762
-0.731669
-0.204727
0.0104004
-0.0104004
-0.299978
0.373944
0.034868
0.0199557
0.0167165
0.588576
0.72386
-0.534659
0.0134235
0.00123921
-0.00309966
0.00653776
-0.00653776
-0.44098
0.505806
0.0160844
-0.0160844
-0.771089
-0.01254
0.0187491
-0.520762
0.558929
0.645015
-0.666602
0.0739847
-0.0739847
-0.058368
0.00876052
-0.00874857
-1.01141
0.618187
-0.46158
-0.00514043
0.594301
0.0170252
-0.611326
-0.709347
0.144393
-0.313644
-0.0132896
0.326933
-0.0483115
-0.0260294
-0.604119
-0.0304388
0.0303305
0.00525163
-0.00147123
-0.00342303
0.00342303
-0.0698167
0.309685
-0.476463
0.139766
0.657899
-0.0944917
0.00503106
-0.00503106
0.508098
-0.310247
0.00933166
0.0199301
0.00139733
0.549763
-0.86001
-0.630109
0.550069
-0.0876361
0.344821
0.787209
-0.00761022
-0.0816084
0.0981512
-0.642511
0.538753
-0.421298
-0.115046
-0.0245468
-0.0262596
-0.0262451
0.449916
-0.0882306
-0.411585
0.696153
0.00313652
0.00238609
-0.00238609
-0.147894
0.0149561
-0.572091
0.617075
-0.133149
0.507117
-0.149494
0.939204
0.718041
0.00525163
-0.78363
0.655143
0.136616
-0.0272841
-0.109332
0.393876
0.102969
-0.0116253
0.0646264
-0.053001
0.00820232
-0.00820232
-0.748223
0.0227019
-0.0505284
0.0704585
-0.0858498
0.0858498
0.00123921
-0.00257916
0.736538
0.156426
-0.314723
-0.095032
-0.513317
0.03026
-0.0660536
0.0660536
-0.0851148
0.0852656
-0.0852656
0.0257209
-0.0257209
-0.355166
-0.0836385
0.238029
0.0704874
0.0428132
-0.767586
-0.077799
0.16045
0.0229796
-0.241677
0.0843386
-0.0843386
-0.461252
-0.0563898
0.229788
-0.00922993
0.0018286
-0.644324
0.660787
-0.0725636
-0.0125512
0.114613
-0.105852
-0.0112809
-0.162635
0.173916
-0.150182
-0.205313
-0.0808047
0.0808047
0.0542353
-0.0542353
-0.0277628
-0.0942139
0.121977
-0.043691
-0.190895
-0.0082151
0.00511544
-0.0108375
0.320523
-0.0258318
0.548092
0.00820559
0.00844693
-0.0501503
0.0501503
-0.731673
0.317027
-0.128525
-0.207921
-0.0232058
-0.0165797
0.0184083
0.196192
0.0264766
0.00229236
-0.000895034
0.0864732
0.0307756
0.0570059
0.103444
-0.0170286
0.0363673
-0.00139431
-0.00325039
0.00482482
0.00194649
-0.00677131
-0.00114688
0.0113421
0.0272704
-0.0272704
0.0480466
-0.0444001
0.0444001
-0.19179
0.00519654
0.0232355
-0.0756143
0.0175186
0.0799028
-0.0799028
0.238702
-0.235284
0.0851025
-0.0668195
-0.168465
-0.0147262
0.0147262
0.405125
0.254008
-0.523043
-0.0815945
-0.0403814
0.544891
0.0709217
-0.0551318
-0.418237
0.11064
-0.152418
0.169427
-0.0170095
-0.0491272
0.0491272
0.897849
-0.592528
-0.00660608
0.0054592
-0.00578269
-0.290691
-0.000926982
0.00504506
-0.0535306
-0.62383
0.569707
-0.670305
0.0147512
0.0989192
0.0159033
0.0244294
-0.1582
-0.330754
0.25514
-0.0547276
0.0269648
0.169866
0.140389
0.324792
0.263741
-0.247838
0.0033536
-0.120825
-0.221211
0.0672719
-0.010266
0.159646
-0.135216
-0.0699305
0.156404
-0.422883
0.119821
-0.102302
0.0595835
-0.471169
0.174472
0.180766
-0.250697
0.0136345
-0.182512
0.181585
0.00443586
0.151968
-0.0283157
0.0472737
0.460825
0.0125443
0.00822699
-0.00374909
0.044199
-0.23822
-0.202514
0.589756
0.167733
0.0620556
0.0730295
-0.0627543
-0.00278472
-0.106548
-0.0308106
0.166018
-0.151267
-0.0180181
-0.00149064
-0.111162
-0.0305441
0.0183492
0.253154
-0.0228543
-0.108637
-0.311321
-0.0208328
0.221439
0.138778
0.178249
0.0573437
0.0961449
0.0712012
0.517374
-0.00816562
0.107418
0.0410765
0.0686971
-0.109774
-0.269034
-0.196122
0.0276568
-0.218015
0.283664
)
;

boundaryField
{
    FrontBack
    {
        type            empty;
    }
    Top
    {
        type            calculated;
        value           uniform 0;
    }
    In
    {
        type            calculated;
        value           uniform -1;
    }
    Bottom
    {
        type            calculated;
        value           uniform 0;
    }
    Out
    {
        type            calculated;
        value           nonuniform List<scalar> 10(1.23322 1.10025 1.13993 1.08704 1.23516 0.902611 0.993085 1.0388 0.63851 0.631404);
    }
    circle
    {
        type            calculated;
        value           uniform 0;
    }
}


// ************************************************************************* //
