/*--------------------------------*- C++ -*----------------------------------*\
| =========                 |                                                 |
| \\      /  F ield         | OpenFOAM: The Open Source CFD Toolbox           |
|  \\    /   O peration     | Version:  2412                                  |
|   \\  /    A nd           | Website:  www.openfoam.com                      |
|    \\/     M anipulation  |                                                 |
\*---------------------------------------------------------------------------*/
FoamFile
{
    version     2.0;
    format      ascii;
    arch        "LSB;label=32;scalar=64";
    class       volVectorField;
    location    "43";
    object      U;
}
// * * * * * * * * * * * * * * * * * * * * * * * * * * * * * * * * * * * * * //

dimensions      [0 1 -1 0 0 0 0];

internalField   nonuniform List<vector> 
808
(
(0.896477 -0.0125825 0)
(1.00008 -0.0412677 0)
(1.03534 -0.230885 0)
(1.06622 0.012226 -2.52536e-21)
(1.49352 -0.242492 0)
(0.942161 -0.0197591 0)
(1.09602 -0.0541233 -7.88522e-21)
(1.13876 -0.0475803 0)
(1.35931 -0.192888 3.06076e-20)
(1.21036 -0.0537523 -6.2758e-21)
(1.18453 0.141205 1.04828e-20)
(1.39733 -0.203184 0)
(0.994655 -0.0438009 0)
(0.724343 -0.0207042 0)
(0.990637 0.0674606 1.43247e-20)
(1.07029 -0.0353643 0)
(0.844752 0.0712729 -5.48915e-21)
(0.96221 -0.0211312 -1.46866e-22)
(1.16512 -0.122854 0)
(1.09888 0.00379726 0)
(1.15361 0.114679 -1.46264e-20)
(0.924846 0.122452 1.15652e-19)
(1.07155 0.00927034 -1.94011e-20)
(1.16266 -0.0275246 0)
(0.957584 0.176854 0)
(1.37207 0.056077 -2.48822e-20)
(1.28183 -0.133209 1.26107e-20)
(0.990676 -0.0290236 -1.02537e-20)
(1.04928 -0.00587882 0)
(1.05536 0.0134456 -2.96583e-22)
(0.976355 0.00501458 7.95113e-24)
(1.10875 -0.00788221 0)
(1.07795 0.0527397 0)
(1.08419 -0.0203959 8.67751e-21)
(1.26728 -0.0261655 6.01157e-21)
(0.748556 -0.121343 1.09691e-19)
(0.850886 -0.0293767 -1.74034e-20)
(1.05088 0.0412717 2.21156e-21)
(1.18368 0.0607304 -5.84151e-21)
(1.13181 0.0465792 0)
(1.22684 -0.0448776 -9.76188e-21)
(1.26483 -0.0966813 0)
(1.00469 -0.0182895 -1.31811e-20)
(1.14176 -0.00768908 1.573e-20)
(1.33192 -0.129442 0)
(1.00916 0.0157765 -2.53651e-20)
(1.01177 0.0362263 4.19875e-21)
(1.25856 -0.214858 1.95365e-20)
(1.17196 0.0555894 -1.27669e-20)
(1.40426 -0.105487 -4.42156e-20)
(1.0916 -0.0310428 1.49012e-20)
(1.13799 -0.0516741 0)
(1.1134 -0.00135745 1.18539e-20)
(1.21446 0.00637396 0)
(1.31699 0.225968 1.75324e-21)
(1.07179 0.0443019 -5.08908e-21)
(1.27145 0.0807886 0)
(1.33139 0.000419583 1.72247e-21)
(1.2206 -0.0665601 6.73696e-21)
(1.14083 0.0232525 -1.9967e-21)
(-0.0908796 0.210009 0)
(1.21688 -0.19292 -1.03612e-20)
(1.25625 -0.0466273 0)
(1.3679 -0.00480597 -2.56479e-20)
(1.17687 -0.013318 -1.54254e-20)
(1.03292 -0.0289262 -1.3161e-20)
(1.40941 -0.00531093 2.83111e-20)
(0.670063 0.0202872 0)
(1.16495 0.0257982 0)
(1.49638 -0.320239 0)
(0.891134 0.0283719 -3.89842e-22)
(1.34957 -0.0930982 -5.2632e-20)
(1.00124 0.0506226 0)
(1.05661 -0.0331522 -7.20282e-21)
(1.1361 -0.326753 -5.05801e-20)
(1.08564 -0.000762376 -2.85438e-20)
(1.12749 0.0132173 -5.5648e-22)
(1.3195 0.49607 2.46203e-20)
(1.0812 -0.0416075 0)
(1.00604 0.273987 -1.94361e-19)
(1.36551 0.0074227 1.15184e-20)
(0.75255 0.0112784 0)
(0.856268 0.021033 -1.7572e-20)
(0.973179 -0.111172 4.04103e-21)
(1.09401 -0.0238986 2.24267e-20)
(1.15943 0.00775665 -1.40416e-24)
(1.37464 -0.206048 0)
(1.33919 0.283547 0)
(1.07742 0.00497292 -2.0752e-20)
(1.42409 0.101167 2.79372e-20)
(1.06901 -0.0143403 1.44361e-20)
(1.3059 -0.0731905 -1.55567e-21)
(0.965429 0.0221442 1.88716e-20)
(1.00325 -0.0254916 0)
(1.11088 0.00878047 2.52465e-21)
(1.3159 0.0763714 -5.69823e-20)
(0.779184 0.0113374 -3.48004e-21)
(1.38372 -0.0819596 0)
(1.29309 -0.0466061 0)
(1.41068 0.031847 -4.84076e-20)
(1.07953 -0.0387293 -9.54961e-21)
(1.10566 0.00819712 -2.56341e-22)
(0.940186 0.0200423 1.3907e-20)
(1.15344 -0.013032 6.54223e-22)
(1.22667 -0.00114374 -3.7332e-21)
(1.00058 -0.00149763 1.89564e-20)
(1.50867 -0.165453 0)
(1.0021 0.264839 0)
(1.09034 0.0310923 1.10813e-20)
(1.21175 -0.196858 -4.30027e-21)
(1.21614 -0.00274926 9.69564e-22)
(1.03724 0.0374882 -1.27206e-19)
(1.15257 0.0344652 -4.36453e-21)
(1.23692 0.228275 4.5463e-21)
(0.820977 0.0204114 0)
(0.921691 -0.0522781 7.50651e-20)
(1.13679 0.0155887 -1.14091e-20)
(1.49136 -0.211766 -2.25846e-20)
(1.14199 -0.0447829 -1.25926e-20)
(0.92614 0.0172091 1.92463e-21)
(-0.240166 0.159202 0)
(0.84811 -0.0193116 2.04257e-21)
(0.792258 0.0225707 0)
(1.05511 0.00412859 -1.0444e-22)
(1.01371 0.0280733 0)
(1.30491 0.316934 3.37278e-21)
(1.03784 -0.0452656 -3.08923e-20)
(1.41005 0.208722 -1.64198e-21)
(1.14173 -0.0524095 0)
(1.08968 -0.0196709 0)
(0.821615 0.133479 0)
(1.15549 -0.0342081 -5.43583e-21)
(1.21223 -0.0282839 4.92966e-21)
(1.06783 0.108574 -3.82278e-20)
(0.856385 -0.0382171 0)
(1.09166 0.0188594 -2.9316e-21)
(0.930562 0.133097 4.12217e-21)
(1.06353 0.0339924 -4.70185e-21)
(0.992442 0.0317287 7.21092e-21)
(1.1116 0.0079675 2.14889e-22)
(-0.00312259 0.0802027 0)
(1.08758 -0.0141085 -1.58438e-20)
(0.851891 -0.188126 2.82464e-21)
(0.710904 0.0257518 -6.83477e-21)
(1.25818 0.1677 4.49154e-21)
(1.10255 0.27745 3.272e-21)
(1.04347 0.0218677 1.78425e-20)
(0.99174 0.0294895 0)
(1.17397 -0.360815 -1.30482e-20)
(1.14945 0.274524 0)
(0.93967 0.0304918 1.42568e-20)
(0.965165 0.275252 1.55106e-19)
(0.965547 0.0353794 0)
(0.821946 0.0916965 0)
(-0.102043 0.103426 -6.53634e-20)
(1.34162 0.13007 -8.34167e-21)
(0.672788 -0.021511 0)
(1.49094 0.0145439 0)
(0.982121 -0.0521567 0)
(1.35996 0.0911905 1.0073e-20)
(-0.0607763 -0.129915 0)
(-0.0460468 0.0917574 2.947e-20)
(1.18972 0.0664768 1.11145e-19)
(1.00052 0.0356756 2.36299e-21)
(0.856233 -0.0023773 0)
(1.05011 -0.0535159 1.75695e-20)
(0.8808 0.0210943 0)
(0.930657 0.0625398 -1.20061e-19)
(1.03266 0.0470751 2.06353e-20)
(1.17923 -0.0279858 4.75194e-21)
(1.08529 0.0134849 9.09501e-21)
(1.01353 0.0673299 -1.39247e-20)
(0.800161 0.345903 -3.25731e-21)
(1.14409 -0.339821 2.97824e-22)
(0.915294 -0.0145108 0)
(1.06422 0.00828314 -1.42821e-20)
(0.87252 0.00568132 -1.46986e-20)
(1.36498 -0.109541 2.36197e-21)
(0.675811 0.0225811 0)
(1.16079 -0.115298 0)
(1.16376 -0.060294 7.38555e-21)
(1.38469 0.214531 6.58479e-21)
(1.10415 0.0142072 7.38475e-21)
(1.03408 0.0205543 1.87063e-20)
(0.846929 0.146841 -8.58936e-20)
(0.813032 0.00368162 2.50462e-20)
(1.12491 -0.0224303 1.03965e-20)
(1.30459 0.00945561 -3.52275e-21)
(1.15069 -0.0273074 -8.69592e-21)
(1.26138 -0.00964644 3.01862e-21)
(-0.091247 0.14548 4.65869e-20)
(1.22486 -0.0172106 0)
(0.624117 -0.0123919 0)
(1.05694 -0.0205842 -6.32354e-21)
(1.08805 0.010552 1.31573e-20)
(0.0670155 0.129274 0)
(0.885792 -0.028323 8.37919e-22)
(1.17342 -0.0777639 -3.66133e-21)
(0.971735 0.00880003 1.57401e-21)
(1.0777 0.0317473 -9.1264e-21)
(0.998417 0.0231614 2.26115e-21)
(1.06694 -0.0659366 3.22975e-21)
(1.08331 0.0297295 0)
(0.471587 -0.00904168 0)
(1.0493 -0.0682589 0)
(1.14684 0.10785 -2.17981e-20)
(-0.0676947 -0.109615 5.81948e-20)
(1.07922 0.0392962 -1.82924e-23)
(1.03135 -0.1869 0)
(0.749285 0.0250229 -1.37191e-20)
(1.0439 0.277214 1.73958e-21)
(0.0130932 -0.039085 -1.96831e-19)
(0.913651 0.15282 -4.80009e-20)
(0.641135 -0.0156167 0)
(0.887474 0.250293 0)
(0.92331 0.0171194 1.31019e-20)
(1.1398 -0.0708621 7.75916e-21)
(1.27325 0.39516 -7.30148e-21)
(1.07702 0.129028 3.6456e-22)
(1.30671 -0.0827418 6.14474e-23)
(0.93852 0.308281 0)
(1.35584 0.421293 -2.41157e-20)
(0.66068 -0.0173314 0)
(0.803058 -0.0203484 -5.32738e-21)
(1.09766 -0.0302912 4.79502e-22)
(0.613556 0.0112039 0)
(1.10029 -0.00649341 0)
(0.19114 0.357534 -4.10268e-20)
(1.294 -0.258099 6.78544e-21)
(0.746032 -0.0127514 4.64901e-21)
(0.989827 -0.00491138 0)
(0.558924 -0.0114055 0)
(0.762183 -0.0146924 -5.06495e-21)
(0.564272 -0.0154204 -8.00591e-22)
(1.36322 -0.00279307 2.25166e-22)
(1.21483 -0.066921 2.47011e-21)
(0.719447 0.0179452 -2.50947e-21)
(1.22732 -0.0109201 2.41205e-22)
(1.14433 0.0150815 -3.43475e-22)
(0.555215 0.0127599 6.85518e-21)
(1.32795 -0.0144431 -6.44705e-22)
(1.22573 -0.113258 0)
(0.921533 0.144183 0)
(0.503192 0.0170893 0)
(1.09656 -0.0253898 0)
(1.14306 -0.0576999 -1.72204e-21)
(1.07193 -0.0953977 0)
(1.22846 -0.0630966 0)
(0.917055 -0.0489312 0)
(1.07454 0.18267 0)
(-0.037429 -0.0749317 6.09852e-20)
(1.1066 -0.0339556 1.28354e-21)
(0.918592 0.0614949 0)
(1.2185 -0.0148159 -3.21928e-21)
(1.09628 0.0415563 3.01285e-21)
(1.12201 0.0404904 4.81161e-21)
(1.08341 -0.14656 6.29176e-21)
(1.00883 -0.104192 0)
(0.573656 -0.0134664 1.06264e-20)
(1.05068 0.0427738 1.35433e-20)
(1.28286 -0.240464 0)
(1.15213 0.132778 -1.22201e-21)
(1.18409 0.119696 5.11985e-21)
(0.809284 0.122383 1.99093e-20)
(1.18137 -0.018678 8.66703e-21)
(1.07409 0.105656 -8.76989e-21)
(1.16044 0.179998 0)
(1.12331 0.177711 -1.79701e-20)
(1.26328 0.229127 3.04391e-21)
(0.706112 -0.0850436 6.09188e-21)
(0.846392 -0.249677 0)
(3.9722e-05 -0.0229608 0)
(0.966968 0.108417 -1.83793e-20)
(1.1099 0.0446644 0)
(1.26513 -0.155233 1.75617e-20)
(1.29853 0.117373 -5.48068e-23)
(1.05683 0.159146 8.43011e-21)
(1.16518 0.0985063 -5.01115e-21)
(1.3224 0.09877 7.41472e-20)
(1.02772 -0.325739 5.10632e-20)
(1.0942 -0.0671639 -3.78277e-22)
(0.808047 -0.273299 0)
(1.00137 0.0712245 0)
(0.905549 0.00286632 -3.06911e-20)
(1.38656 -0.330343 -7.10423e-20)
(1.03201 -0.0250251 0)
(0.683956 0.277194 1.27791e-20)
(0.704128 0.222198 0)
(0.776346 -0.277079 3.22974e-21)
(0.706307 0.131811 -1.59695e-20)
(0.815833 0.0174262 -8.52776e-21)
(1.08831 -0.157292 0)
(1.30371 0.166721 6.39364e-23)
(1.21907 0.0693027 -1.99457e-21)
(0.845239 -0.299683 3.87506e-21)
(1.04986 -0.0343246 -5.68869e-21)
(0.707867 -0.377247 0)
(1.09089 0.0668896 0)
(1.17565 -0.243253 5.67958e-21)
(0.872967 -0.330422 -3.26266e-21)
(1.26914 0.194143 -4.15955e-21)
(1.07364 -0.0320025 -5.9251e-21)
(1.02401 -0.0464668 -7.16753e-22)
(1.04162 0.0405817 0)
(0.460147 -0.147113 1.67174e-20)
(1.34123 0.066867 -1.35251e-20)
(0.702764 -0.195291 -8.42737e-21)
(0.380292 -0.232384 -2.10558e-20)
(1.39783 -0.0454779 2.54989e-20)
(1.00678 0.0732727 7.81339e-20)
(1.17208 -0.17645 -6.04723e-21)
(1.05584 -0.068546 9.22279e-22)
(-0.0823755 -0.0788386 -1.00563e-20)
(0.999144 -0.00644118 0)
(1.03417 -0.0872067 -1.54889e-20)
(0.834243 -0.0363004 1.92329e-20)
(1.10514 -0.0269458 8.55574e-21)
(0.974412 -0.228271 5.27218e-21)
(0.534216 -0.0261344 1.06035e-21)
(1.44319 -0.35753 -1.75359e-20)
(1.07348 -0.0213127 0)
(1.04101 -0.00849761 -9.40475e-22)
(1.13543 0.0160804 -4.63168e-21)
(1.06417 0.0407191 0)
(0.811288 0.0297565 -3.19127e-21)
(1.0958 0.0215853 5.58624e-21)
(0.852558 -0.0901757 -2.33571e-20)
(1.11691 -0.0670142 -1.05732e-20)
(0.826095 -0.157223 2.72044e-21)
(-0.0486956 -0.0333267 0)
(0.474664 -0.273235 1.81689e-20)
(1.15237 -0.0361863 0)
(1.09099 0.0145083 2.14464e-20)
(1.1181 0.18862 0)
(1.12242 -0.0309974 1.05397e-20)
(1.01547 0.0262419 0)
(0.987495 -0.108596 0)
(1.3523 -0.0413644 1.71355e-20)
(0.802895 -0.0925869 0)
(1.07786 0.230072 4.5372e-21)
(1.16789 -0.00679007 5.04652e-22)
(1.03407 0.00771062 5.56609e-21)
(1.31103 -0.176302 -1.30306e-20)
(1.24327 0.11592 -1.76866e-22)
(1.27836 -0.204086 -1.20305e-20)
(1.05183 0.00350616 0)
(1.09439 -0.0253353 0)
(1.04399 0.0544891 3.28767e-21)
(1.20617 -0.0735696 0)
(1.40798 0.221788 -1.96821e-20)
(0.91551 0.0312296 3.85928e-21)
(1.02737 0.0124517 2.73617e-20)
(1.20801 -0.0309838 1.25604e-22)
(-0.0113135 -0.0223817 0)
(-0.0465318 -0.112904 0)
(0.0874465 0.323835 -5.16715e-20)
(-0.0810272 -0.0576015 0)
(0.717656 0.252817 1.12533e-20)
(1.16245 0.0384599 -3.72756e-21)
(1.08144 0.0258152 -9.40943e-21)
(1.13169 -0.142286 -6.23477e-21)
(1.16074 -0.10625 0)
(0.715838 -0.0253526 -3.95914e-21)
(1.07587 0.0852792 0)
(1.09447 -0.0071255 8.7967e-22)
(0.566711 -0.111463 0)
(0.736091 0.298413 -5.11088e-23)
(1.09223 0.107789 0)
(1.23056 0.0381326 0)
(0.286666 0.0762231 1.46732e-21)
(0.626389 0.444368 -6.76956e-22)
(0.883985 0.262258 5.78072e-21)
(1.00901 0.0180407 -9.57038e-21)
(0.339054 0.0136071 0)
(1.20355 0.0746163 2.3196e-21)
(1.25516 0.0303213 4.5178e-21)
(1.26118 -0.0903666 2.3052e-21)
(0.509024 0.230592 1.00318e-20)
(-0.0692671 -0.0540884 -1.15002e-19)
(1.17424 0.102232 0)
(-0.0258934 0.023995 0)
(1.23441 0.0781528 7.06229e-21)
(0.520829 0.228171 -1.07924e-20)
(1.1944 0.0375826 -1.78602e-20)
(1.08922 -0.0343818 0)
(1.11517 0.0865397 6.80797e-21)
(1.26011 -0.3655 1.24618e-20)
(0.68061 -0.00825281 -1.28515e-20)
(1.11796 -0.0408665 -5.75401e-21)
(1.08047 -0.0631479 -7.46861e-22)
(0.492683 -0.512136 1.31933e-20)
(1.14283 0.012678 -3.1125e-20)
(1.1398 0.020756 0)
(1.14431 0.114203 0)
(1.11389 -0.091496 -2.53612e-21)
(1.24437 0.0363707 -4.0828e-21)
(0.718164 -0.380392 -3.94475e-20)
(1.19022 -0.0906207 -1.09029e-20)
(1.1471 0.0558187 1.13541e-20)
(0.526156 8.33198e-05 2.26309e-20)
(0.200573 0.327263 -1.60126e-20)
(0.624962 -0.265004 3.11341e-20)
(1.1681 0.183252 -6.36667e-21)
(1.26122 -0.489675 9.12708e-21)
(1.25881 -0.0189698 7.62064e-22)
(1.13688 -0.0693549 3.00554e-21)
(0.945582 -0.239198 9.15791e-20)
(-0.14936 -0.214122 0)
(1.24161 0.0351647 8.27585e-22)
(0.0379589 -0.279073 -9.38586e-21)
(1.2223 0.122569 -6.11143e-21)
(1.21285 -0.163851 2.89082e-21)
(1.07687 0.020994 0)
(0.332161 -0.050187 0)
(1.15037 -0.0379275 0)
(1.43265 0.105807 -9.01011e-21)
(1.20546 -0.0206304 -1.89531e-21)
(1.10121 -0.0462764 7.04473e-21)
(0.482736 0.0164889 0)
(0.644034 0.00520525 0)
(0.638355 -0.000379442 3.68028e-22)
(0.446713 -0.010484 0)
(1.27619 0.0542794 0)
(1.01954 -0.0120137 2.42758e-20)
(0.289487 -0.193149 0)
(0.95428 0.0560856 0)
(1.12621 0.0522487 0)
(1.16944 0.174877 -1.58102e-20)
(1.22783 0.000650967 -4.55602e-21)
(0.949315 -0.0338164 1.26038e-20)
(1.36155 -0.394158 -1.35269e-19)
(0.436388 -0.288454 -2.38799e-21)
(1.12581 0.113044 7.23436e-21)
(1.04623 0.227275 0)
(0.231347 -0.492115 0)
(-0.202745 0.486902 0)
(1.13208 -0.0496249 6.71772e-21)
(1.34036 -0.264241 -4.25438e-20)
(1.3259 -0.0385572 0)
(1.04692 0.037054 -1.3591e-20)
(0.80788 -0.237295 0)
(1.50806 -0.0884299 8.8704e-20)
(0.410836 0.51694 1.26151e-19)
(0.407158 -0.0209831 0)
(1.1728 -0.270533 1.45243e-19)
(-0.0869576 0.050799 0)
(0.185013 -0.583231 -6.30605e-21)
(1.31017 -0.0264554 0)
(-0.219718 0.325579 7.67538e-21)
(0.984439 -0.0516019 0)
(1.19415 -0.174035 -5.32466e-21)
(-0.181649 0.102098 -9.81447e-21)
(1.10876 -0.0474414 4.13819e-21)
(1.03692 0.275313 -5.39306e-21)
(0.586058 -0.530645 -8.9379e-20)
(1.07254 0.110572 -4.18082e-21)
(1.18889 -0.103276 2.45302e-21)
(1.17058 0.243126 -2.85679e-20)
(1.17602 -0.222441 1.15215e-21)
(1.14978 -0.0489571 1.85424e-21)
(0.257053 0.0924158 -8.4502e-20)
(0.0510059 0.147482 -6.2672e-21)
(1.24507 0.227633 4.60426e-21)
(1.05551 -0.0424307 0)
(0.741259 0.384892 1.38378e-22)
(1.45124 -0.423722 1.06395e-19)
(1.07911 -0.023282 -8.13262e-20)
(1.44003 0.162529 5.75143e-20)
(1.06538 -0.0149455 1.00099e-20)
(1.05444 0.154506 2.46955e-20)
(1.059 -0.0104607 0)
(1.15153 -0.0210654 0)
(1.10466 -0.14621 -4.82e-21)
(1.08722 -0.0190203 -4.50549e-21)
(1.11372 -0.224678 -1.06764e-21)
(1.09454 0.0688727 -1.00832e-20)
(1.32275 0.0221779 -2.25312e-20)
(0.41071 0.0213232 0)
(1.01941 -0.0107137 2.37979e-20)
(1.23972 -0.0651155 0)
(1.10882 0.0717393 -6.64555e-21)
(1.13889 0.0120137 0)
(1.03808 -0.00822047 1.38348e-20)
(1.23214 0.0231192 5.23767e-21)
(0.948032 0.181636 0)
(0.0827981 -0.0248079 2.00679e-19)
(0.88693 -0.219247 -7.18296e-20)
(1.20552 0.096886 -1.62211e-20)
(-0.144732 0.0521154 4.4272e-20)
(1.16575 0.0132993 -1.39392e-22)
(0.777357 0.26136 -4.2996e-22)
(-0.113297 0.0617131 -4.61312e-20)
(-0.0215341 0.000281714 -2.70035e-20)
(1.02223 -0.025633 0)
(-0.0365188 -0.0540463 0)
(1.09422 -0.0654505 0)
(0.114002 -0.114766 0)
(1.09954 -0.0342061 0)
(0.198888 0.0419148 0)
(1.13073 0.0282455 0)
(1.07737 -0.140759 0)
(1.41195 0.0936877 2.87646e-21)
(0.614519 -0.300885 -2.64025e-20)
(-0.111839 0.244498 0)
(1.2707 -0.0234978 8.46559e-20)
(1.18114 0.0740114 5.86055e-21)
(1.0819 0.0201557 0)
(-0.0378293 -0.0493646 0)
(1.15502 -0.00515601 -5.14685e-21)
(1.15887 -0.0316504 1.38384e-21)
(1.16204 0.385361 0)
(0.413819 -0.025764 8.62763e-20)
(1.121 0.0562168 2.01264e-21)
(0.280808 -0.0523015 -6.65917e-20)
(-0.0573249 0.0292923 -2.71341e-20)
(-0.0374311 0.0488509 7.18934e-20)
(0.116857 -0.471821 5.81415e-21)
(0.867262 0.347529 4.04561e-22)
(1.15203 0.0604217 -1.28264e-20)
(1.02392 -0.00917034 0)
(1.07185 -0.0565628 -2.02943e-20)
(1.23425 -0.0329179 4.89709e-21)
(-0.0159173 -0.0484878 1.14281e-19)
(0.976067 -0.0715651 -5.73017e-20)
(0.916381 0.3209 -4.09924e-23)
(1.19219 0.176419 1.68949e-21)
(0.111549 -0.0261692 4.53783e-20)
(0.2988 -0.0338415 -6.20722e-20)
(0.579377 0.0045808 -7.8372e-20)
(1.34758 0.139473 -5.00734e-21)
(-0.0545891 -0.0500371 0)
(1.18562 0.336034 -5.03586e-21)
(0.899018 -0.138933 4.12724e-20)
(1.06937 -0.112314 -3.97992e-20)
(1.18559 0.0658074 0)
(1.5208 -0.165243 9.39718e-20)
(1.16728 0.0441639 -3.44736e-21)
(-0.0262411 -0.0667456 -4.09151e-20)
(0.25428 0.108148 0)
(0.915207 0.0343741 -2.37225e-21)
(1.11966 0.0129203 2.90841e-21)
(1.15379 -0.354148 2.41932e-20)
(1.16123 -0.0119358 2.98081e-21)
(1.11693 0.0415489 0)
(1.2412 -0.143732 -1.92871e-20)
(-0.107589 0.0397754 -9.02795e-20)
(1.2503 0.00431094 9.57984e-21)
(1.09708 0.164933 -8.45957e-21)
(1.07717 0.0720626 1.1532e-20)
(-0.0501217 -0.0931153 2.07077e-20)
(-0.0121275 0.0146548 -5.69284e-20)
(0.6294 0.20652 0)
(0.469339 -0.0992031 0)
(1.15118 0.0964899 -2.45325e-20)
(1.05184 0.0631959 1.61715e-20)
(1.07752 0.010844 0)
(0.652489 0.261461 4.62522e-20)
(0.706124 0.0886345 -9.28631e-21)
(1.09827 0.106692 0)
(1.06544 0.060224 0)
(1.12717 -0.0467996 0)
(1.22165 -0.0822477 0)
(1.04355 0.0600912 4.41595e-21)
(-0.042231 0.0394235 2.96305e-20)
(1.35226 0.0176016 4.47219e-21)
(1.46863 -0.111605 -1.04856e-19)
(1.08917 -0.0323273 -7.56979e-21)
(0.135921 0.299104 0)
(1.00144 0.0273418 0)
(0.640906 -0.0135957 -1.38687e-21)
(0.526188 0.00903035 -5.18353e-20)
(0.066025 0.0373928 4.26175e-20)
(0.947042 0.00566132 1.33489e-21)
(0.802283 -0.282039 0)
(0.757788 -0.0872626 0)
(1.041 -0.123932 0)
(0.538899 0.512403 1.42216e-20)
(-0.00775586 0.00310345 -2.88537e-20)
(1.0641 0.136143 -6.6631e-21)
(-0.0345441 -0.0901008 8.00865e-20)
(1.15453 -0.0631333 2.78938e-21)
(1.16637 0.308657 5.4489e-20)
(1.10877 -0.0718212 8.14743e-21)
(0.564177 0.120305 1.10354e-19)
(1.16049 0.279566 1.49703e-21)
(0.819216 0.227474 0)
(0.555263 0.270511 0)
(0.86219 0.130767 6.59888e-22)
(-0.253557 0.249107 0)
(0.617683 0.0304902 4.21486e-21)
(0.631194 -0.435185 -4.09088e-21)
(0.232621 0.0495188 -1.01567e-19)
(1.13671 -0.215415 2.47571e-20)
(1.03315 0.359976 1.09045e-20)
(0.984784 0.0135491 0)
(1.21942 0.129979 -5.81915e-22)
(0.6607 0.012837 0)
(1.02249 -0.0116365 -4.55076e-22)
(0.542084 -0.00285455 0)
(0.71772 0.121967 0)
(0.991103 -0.0274304 -9.28048e-21)
(1.43363 0.173831 -9.3619e-21)
(1.11394 -0.0787582 4.07073e-21)
(0.540439 -0.510052 0)
(1.13509 -0.141254 1.11388e-21)
(0.8063 0.373718 7.39371e-20)
(-0.0426929 0.0168281 1.011e-21)
(1.21984 -0.0629761 5.05448e-21)
(1.22154 0.0218736 -3.25174e-21)
(1.17756 -0.184312 8.08384e-22)
(0.814562 0.00981739 -9.48154e-21)
(0.056713 0.0190545 3.2271e-20)
(-0.0220716 -0.0445029 -6.30944e-20)
(-0.18231 0.305262 0)
(-0.111169 0.390738 0)
(1.22603 -0.62116 3.89519e-20)
(1.13714 -0.0348149 -1.80934e-21)
(0.93698 -0.480531 -5.46153e-20)
(1.16608 0.298649 9.14543e-21)
(1.36398 0.199085 2.69447e-20)
(0.601736 0.419574 0)
(0.245375 0.412239 -1.20204e-19)
(0.596338 0.47591 0)
(0.065997 0.218979 0)
(1.14233 -0.472886 0)
(-0.0461163 0.035685 3.12181e-22)
(1.17061 -0.00740566 0)
(0.710059 -0.268078 -4.84824e-21)
(0.593805 0.689832 2.00717e-20)
(1.2552 -0.0411647 4.84836e-21)
(-0.0248416 -0.114617 -1.49826e-19)
(0.686888 -0.223775 -3.02448e-20)
(0.446412 0.144013 -1.225e-20)
(1.20689 0.0827732 0)
(1.35849 0.35824 2.54786e-20)
(1.22068 0.566256 6.55515e-22)
(0.149616 -0.0198388 -1.8675e-20)
(0.980186 0.143651 2.41309e-20)
(0.977859 -0.0354541 1.42214e-21)
(0.914533 0.00538137 -5.66939e-22)
(0.0239836 -0.0348201 0)
(0.660674 -0.667855 -2.83837e-20)
(0.616236 0.193803 0)
(0.187815 0.00465208 0)
(-0.0365294 0.0304835 0)
(0.0272131 -0.0678236 -5.80773e-20)
(1.23823 -0.0267534 -5.87872e-21)
(-0.0340998 0.0365824 0)
(-0.0197232 0.0249907 0)
(1.457 0.123446 -5.43271e-20)
(-0.0293596 -0.103826 6.73516e-20)
(0.114332 0.230342 -1.03544e-19)
(0.376421 0.0138635 0)
(0.173851 -0.289096 8.03972e-20)
(1.17711 -0.233174 0)
(1.0029 -0.28209 0)
(0.0472199 -0.0731092 1.43222e-19)
(1.14683 0.0262243 -3.39424e-22)
(1.1163 0.339151 3.19754e-20)
(0.253562 0.028618 4.13642e-20)
(0.414361 -0.533871 -3.15868e-20)
(1.30067 0.0842483 0)
(1.21088 0.202182 1.85233e-20)
(1.2144 0.213913 -2.27543e-20)
(0.102492 0.0817189 -2.37523e-20)
(-0.0776844 0.0268496 0)
(1.07068 -0.0514371 -1.84935e-20)
(1.10772 -0.214694 -1.23086e-20)
(0.592655 -0.415989 0)
(1.09889 -0.145872 -2.41008e-20)
(-0.0224605 0.372451 0)
(0.561326 0.0444522 0)
(1.27074 0.00465446 4.72365e-21)
(0.996176 0.0334192 5.9563e-22)
(1.07774 0.743973 -2.11698e-20)
(0.230778 -0.391332 1.26495e-19)
(1.12554 0.0541225 -1.91536e-22)
(1.20635 0.0712554 -3.74964e-21)
(-0.0358934 0.0522482 2.72393e-20)
(0.785743 0.731675 3.38476e-20)
(1.37555 -0.338517 -1.56686e-20)
(-0.122187 0.350765 4.42882e-20)
(1.16609 0.00364745 0)
(0.371883 0.18797 -7.87656e-21)
(0.935664 -0.653938 3.69e-21)
(0.897601 0.640845 -1.29092e-20)
(0.656905 -0.0125649 -8.36458e-20)
(1.13484 -0.0148381 -1.49587e-20)
(1.07534 -0.0765282 6.68172e-21)
(1.17544 0.0377297 5.3155e-21)
(1.10532 0.11689 7.67438e-21)
(1.13558 -0.109584 0)
(0.899755 0.111192 1.17387e-20)
(0.882327 0.458512 0)
(1.37765 0.0413994 1.09402e-21)
(1.16851 0.106309 4.62598e-21)
(0.745005 0.263863 0)
(0.511504 0.110019 9.68577e-20)
(0.892945 0.710557 -8.91761e-22)
(1.06912 0.284374 -2.45564e-20)
(1.03885 -0.00472261 1.26758e-20)
(0.416002 0.486357 0)
(1.32516 -0.45793 0)
(0.960643 -0.0180657 7.49152e-21)
(1.26058 0.50541 0)
(-0.0246455 0.037189 -3.55333e-20)
(1.3069 -0.402215 -2.28243e-20)
(1.16474 0.509156 0)
(0.455714 0.209647 1.72605e-19)
(1.11804 0.318083 -1.05757e-19)
(0.829124 -0.649643 -2.29339e-20)
(1.17785 0.0210038 3.76546e-21)
(0.907884 0.153139 7.03562e-20)
(1.0828 0.164982 6.23149e-20)
(1.06935 0.703747 2.64541e-21)
(0.918317 -0.444301 6.04748e-20)
(1.4344 0.184418 2.79552e-20)
(1.12686 -0.00288697 -2.30453e-21)
(0.0352047 -0.0687877 1.27398e-19)
(1.11189 -0.711615 4.10888e-20)
(0.890721 -0.732498 4.46807e-20)
(0.25722 -0.347657 0)
(0.974842 -0.151793 7.05331e-20)
(0.363037 0.300695 -4.48036e-19)
(-0.111195 0.323096 2.75856e-20)
(0.21014 0.0315127 1.73512e-20)
(0.774715 -0.0480955 -9.68365e-20)
(1.07815 0.528297 0)
(0.981781 0.215347 8.73479e-20)
(1.08496 0.0267313 5.15754e-21)
(0.912198 0.439224 -9.53214e-20)
(0.807768 -0.744164 -6.67571e-21)
(0.935933 0.0162903 -4.93755e-20)
(0.978077 0.487129 0)
(1.24347 -0.0723176 3.89701e-21)
(1.41238 -0.501502 1.73965e-20)
(1.24012 -0.325974 1.2471e-20)
(-0.113881 0.360589 3.77888e-20)
(0.197043 -0.00697289 -1.8345e-20)
(0.979122 -0.122168 -5.80608e-20)
(0.352116 0.521223 0)
(0.925469 0.0076461 3.93419e-20)
(1.15401 0.637178 6.74472e-20)
(-0.0793911 0.102699 1.93759e-19)
(-0.0545622 0.0605887 -2.27811e-20)
(-0.115078 -0.035902 4.87302e-20)
(1.09879 0.0183522 -7.17756e-21)
(1.18503 -0.466908 0)
(1.08906 -0.741196 -3.13395e-20)
(0.700187 0.343593 0)
(0.0926656 0.101636 -1.46759e-19)
(1.11357 0.0497613 4.88152e-21)
(-0.0517507 -0.0948165 -3.81867e-20)
(1.04841 0.0535004 -1.18908e-20)
(0.0959463 0.0149818 4.61622e-20)
(0.835012 0.128432 0)
(1.25225 0.0438597 2.20251e-20)
(0.034523 0.0402721 -1.97012e-20)
(-0.15209 0.418702 -4.4915e-20)
(-0.278151 0.42908 0)
(0.13282 -0.0085606 0)
(1.23652 -0.00463366 -7.90624e-21)
(0.458659 -2.14864e-05 2.01382e-19)
(1.3013 -0.730646 -3.87413e-20)
(1.10274 -0.0735921 5.51903e-20)
(1.06246 0.243718 -3.57523e-20)
(0.377539 -0.575473 1.36793e-19)
(1.54987 0.287732 -2.73646e-20)
(0.148218 -0.0555255 5.01935e-20)
(0.20871 0.298131 1.99866e-19)
(0.186035 -0.0300866 -1.85984e-19)
(0.955385 -0.497591 -4.1595e-20)
(1.45004 0.39151 2.77759e-20)
(0.583062 -0.694398 4.59987e-20)
(1.10553 -0.0692363 -7.05851e-21)
(0.405039 0.210463 7.97027e-20)
(1.17387 0.294444 -4.13691e-20)
(0.661643 0.636177 -4.29947e-20)
(1.38491 -0.624786 0)
(1.41413 0.523231 2.96862e-20)
(1.07139 -0.530873 -1.35349e-20)
(1.38665 0.609005 -8.18842e-20)
(1.1639 -0.00159597 0)
(-0.0432725 0.0521454 0)
(1.25059 0.73054 0)
(1.26714 -0.0719126 -3.76949e-21)
(0.752161 -0.31132 -2.04488e-19)
(0.482231 -0.0919576 0)
(-0.0430134 0.0694917 -2.3084e-20)
(1.02833 -0.244041 9.30861e-20)
(-0.1618 0.273023 0)
(0.323975 0.01558 1.23933e-20)
(1.14011 0.0150507 0)
(1.40925 0.281213 0)
(1.17962 0.0217359 -4.03259e-21)
(0.367739 -0.304844 0)
(1.00754 0.143514 4.23211e-20)
(1.30221 0.289364 0)
(-0.0619795 0.0937936 1.45787e-21)
(0.821318 -0.405697 0)
(1.51543 0.343444 -4.13963e-20)
(1.23123 0.367323 6.37291e-21)
(0.841764 0.643921 -1.04069e-20)
(1.00308 0.1516 -9.63193e-20)
(0.96929 -0.204768 -4.5379e-20)
(1.44909 0.29734 2.43972e-20)
(0.980902 0.127616 0)
(0.56741 -0.0805093 0)
)
;

boundaryField
{
    FrontBack
    {
        type            empty;
    }
    Top
    {
        type            noSlip;
    }
    In
    {
        type            fixedValue;
        value           uniform (1 0 0);
    }
    Bottom
    {
        type            noSlip;
    }
    Out
    {
        type            zeroGradient;
    }
    circle
    {
        type            noSlip;
    }
}


// ************************************************************************* //
