/*--------------------------------*- C++ -*----------------------------------*\
| =========                 |                                                 |
| \\      /  F ield         | OpenFOAM: The Open Source CFD Toolbox           |
|  \\    /   O peration     | Version:  2412                                  |
|   \\  /    A nd           | Website:  www.openfoam.com                      |
|    \\/     M anipulation  |                                                 |
\*---------------------------------------------------------------------------*/
FoamFile
{
    version     2.0;
    format      ascii;
    arch        "LSB;label=32;scalar=64";
    class       volVectorField;
    location    "46.5";
    object      U;
}
// * * * * * * * * * * * * * * * * * * * * * * * * * * * * * * * * * * * * * //

dimensions      [0 1 -1 0 0 0 0];

internalField   nonuniform List<vector> 
808
(
(0.897885 -0.00828425 0)
(1.00662 -0.0307891 0)
(1.25384 0.248281 0)
(1.06654 0.0104579 -3.17719e-21)
(1.45293 -0.286594 0)
(0.951894 -0.0321904 0)
(1.15695 -0.0496703 -6.40203e-21)
(1.10081 0.00414013 0)
(1.33334 -0.22112 1.40411e-20)
(1.22717 -0.0943913 5.20776e-21)
(1.15715 -0.228424 7.49301e-21)
(1.35874 -0.253493 0)
(1.00125 -0.00541296 0)
(0.739865 -0.0164074 0)
(1.18832 -0.129849 2.53866e-20)
(1.1148 -0.0108751 0)
(1.08847 -0.132922 -8.6641e-21)
(1.02743 -0.0333419 -1.74494e-22)
(1.27468 0.177131 0)
(1.12315 0.00518577 0)
(1.26929 -0.228746 -1.04593e-20)
(0.929838 0.135565 1.03193e-19)
(1.06926 -0.000278653 -1.11894e-20)
(1.16668 -0.0273197 0)
(0.970684 0.200849 0)
(1.22634 -0.0987583 -3.01144e-20)
(1.26012 -0.17504 -4.42009e-21)
(0.979346 -0.0246307 -7.76305e-21)
(1.13117 -0.0352896 0)
(1.05244 0.037608 -8.64277e-23)
(1.02919 -0.051112 6.85564e-24)
(1.12278 -0.00455077 0)
(1.02388 0.0329577 0)
(1.10752 -0.0217029 6.19344e-21)
(1.2856 -0.0809047 2.77888e-21)
(0.743309 -0.0907427 1.13869e-19)
(0.871659 -0.0285044 -1.14862e-20)
(1.02761 0.0307316 1.03478e-21)
(1.17743 0.0200928 -7.68159e-21)
(1.07049 0.0122653 0)
(1.26195 -0.0605942 -3.76503e-21)
(1.26651 -0.130004 0)
(0.992076 -0.00478962 -7.50048e-21)
(1.11895 -0.0511881 1.14941e-20)
(1.03555 -0.174784 0)
(1.00853 0.0126485 -1.63678e-20)
(1.00628 0.0205521 2.5976e-21)
(1.23665 -0.243779 -1.74015e-20)
(1.14855 0.0420734 -1.60335e-20)
(1.38751 -0.18934 -2.02828e-20)
(1.15214 -0.0350696 1.03635e-20)
(1.14327 -0.0748318 0)
(1.10914 -0.0146131 6.77152e-21)
(1.12695 -0.0949576 0)
(1.333 0.176409 8.65187e-21)
(1.03869 0.0446744 -5.83544e-21)
(1.14984 -0.107228 0)
(1.06791 -0.150827 3.15394e-21)
(1.23035 -0.0927882 -5.59017e-21)
(1.11898 0.0521533 -2.15163e-21)
(-0.138237 -0.496403 0)
(1.20408 -0.205792 3.63197e-21)
(1.01049 -0.084811 0)
(1.43088 -0.102975 -1.8003e-20)
(1.0815 -0.101475 -1.43324e-20)
(1.03102 -0.0287755 -8.33465e-21)
(1.31174 -0.154484 1.8421e-20)
(0.646907 0.00538644 0)
(1.15516 -0.0933746 0)
(1.41815 -0.346927 0)
(0.895745 0.0187084 -4.81263e-22)
(1.22142 -0.144766 -3.01033e-20)
(0.998941 0.0330368 0)
(1.04193 -0.0522836 -5.68392e-21)
(1.10719 -0.320408 -6.59682e-20)
(1.17707 -0.0487915 -8.86364e-21)
(1.1381 0.0415164 -3.05256e-22)
(1.36685 0.487501 2.80407e-20)
(1.1034 -0.0296499 0)
(1.02505 0.294134 -1.63719e-19)
(1.26594 -0.0416614 1.42454e-20)
(0.74971 0.0240497 0)
(0.855898 0.0503566 -1.31346e-20)
(0.966835 -0.107453 4.77442e-21)
(1.12616 -0.0817473 5.30464e-21)
(1.1875 0.0240032 4.03573e-22)
(1.26277 -0.233878 0)
(1.38038 0.248382 0)
(1.08175 0.00257944 -2.83412e-20)
(1.42768 -0.0933634 2.72235e-20)
(1.08479 -0.0131955 2.25342e-20)
(1.30138 -0.128545 -7.58507e-22)
(0.968831 0.0277406 1.47802e-20)
(1.00389 -0.0278435 0)
(1.09956 0.00494293 1.39812e-21)
(1.29076 -0.123796 -5.28719e-20)
(0.779932 0.024251 -4.11682e-21)
(1.20424 -0.0460169 0)
(1.32271 -0.0918053 0)
(1.39852 -0.130958 -2.85486e-20)
(1.10176 -0.0547943 -6.31334e-21)
(1.12448 0.0178191 -2.89895e-22)
(0.942883 0.0294937 1.89303e-20)
(1.1797 0.037739 3.58896e-22)
(1.34005 0.0477964 -1.9888e-20)
(0.996262 -0.000252463 1.10341e-20)
(1.34003 -0.0424877 0)
(0.804712 -0.150882 0)
(1.0736 0.0390489 1.30505e-20)
(1.1858 -0.210939 -1.26367e-20)
(1.27224 0.0372202 4.49598e-21)
(1.05053 0.0501266 -1.14211e-19)
(1.13614 0.0457912 -5.28699e-21)
(1.04715 -0.0173584 1.15659e-20)
(0.800295 0.0190073 0)
(0.917171 -0.0371447 7.75889e-20)
(1.12744 0.040969 -1.40415e-20)
(1.41019 -0.261218 -1.09189e-20)
(1.10868 -0.0518476 -1.01929e-20)
(0.929277 0.0136553 2.40491e-21)
(-0.00127272 -0.314359 0)
(0.845947 -0.017464 1.2466e-21)
(0.776964 0.0278876 0)
(1.05553 0.00344935 -1.426e-22)
(1.01559 0.0272905 0)
(1.33836 0.292189 1.51128e-20)
(1.03068 -0.0540101 -4.19836e-20)
(1.10532 0.0603275 5.73408e-21)
(1.14388 -0.0507813 0)
(1.08625 -0.0276519 0)
(0.504706 -0.0765533 0)
(1.10164 -0.0303128 -5.82019e-21)
(1.25394 -0.0476898 1.56319e-21)
(1.07383 0.112995 -2.6803e-20)
(0.844848 0.00455239 0)
(1.0867 0.0341562 -3.58136e-21)
(1.09588 -0.136993 -1.74872e-21)
(1.20327 -0.0823565 3.10848e-22)
(0.974909 0.0311877 8.55216e-21)
(1.12107 0.0151839 2.43033e-22)
(0.100452 0.12688 0)
(1.09296 -0.0174739 -2.49633e-20)
(1.25164 0.191758 -2.01672e-21)
(0.704301 0.0218521 -7.93823e-21)
(1.27388 0.12863 -5.43139e-22)
(0.843919 -0.312556 2.90472e-21)
(1.04406 0.0163813 2.29308e-20)
(0.990354 0.0312225 0)
(1.03673 0.0264707 2.31818e-20)
(0.830103 -0.236231 0)
(0.926874 0.0240998 1.66226e-20)
(0.976933 0.299971 1.31669e-19)
(0.965208 0.0302134 0)
(0.821821 0.124934 0)
(-0.0824793 0.106977 -1.02361e-19)
(1.32735 0.0664662 -1.77427e-20)
(0.668255 -0.0207739 0)
(1.41488 -0.132427 0)
(1.18395 0.0208905 0)
(1.31893 -0.00710089 1.74573e-20)
(-0.0233538 0.0104066 0)
(-0.0335375 0.199931 5.04818e-20)
(0.929382 -0.0755006 4.79061e-20)
(0.991765 0.0390549 2.87265e-21)
(0.849664 -0.0012524 0)
(1.00839 -0.0300108 1.56794e-20)
(0.878021 0.0284981 0)
(0.66552 -0.0422648 -5.17894e-20)
(0.996366 0.0279419 2.62846e-20)
(1.08195 -0.0856597 4.81433e-21)
(1.08698 0.0171701 1.25052e-20)
(1.01748 0.0730726 -9.9092e-21)
(0.616323 -0.333521 -2.89181e-21)
(1.12233 -0.334671 1.01854e-21)
(0.902049 -0.0286714 0)
(1.06474 0.00281147 -1.95963e-20)
(0.870345 0.008963 -9.3756e-21)
(1.36785 -0.174878 1.15166e-21)
(0.705557 0.026229 0)
(1.02589 -0.140874 0)
(1.06206 -0.0458827 3.767e-21)
(1.4193 0.160938 1.49044e-20)
(1.10159 0.0301125 1.02925e-20)
(1.03761 0.0249744 2.21774e-20)
(0.984805 -0.241993 -7.21098e-20)
(0.813174 0.0031253 1.73756e-20)
(1.11978 -0.021665 6.83979e-21)
(1.39896 -0.109653 -3.08603e-21)
(1.06523 -0.0590128 -7.41482e-21)
(1.33495 -0.0407461 2.64443e-21)
(-0.102342 0.0622338 7.62715e-20)
(1.27893 -0.014188 0)
(0.606466 -0.0215243 0)
(1.06136 -0.0207692 -9.74914e-21)
(1.08726 0.0201293 1.65865e-20)
(0.318179 0.00792113 0)
(0.867729 -0.0123254 6.16871e-22)
(1.03408 -0.0184979 -5.8813e-21)
(1.02364 0.0162389 3.88037e-21)
(1.07709 0.0224521 -6.0748e-21)
(1.00068 0.0219376 2.61908e-21)
(0.998699 -0.00776305 5.18798e-21)
(1.04289 0.0254053 0)
(0.308588 -0.0213554 0)
(1.04783 -0.0620346 0)
(1.28713 0.0411539 -4.44803e-20)
(-0.0355169 0.0208005 4.48097e-20)
(1.14271 0.00133688 -3.88104e-23)
(1.20718 0.260424 0)
(0.727554 0.0176733 -1.61662e-20)
(1.18769 -0.284529 2.34275e-21)
(-0.00353198 -0.036599 -1.23139e-19)
(0.77233 -0.0672831 -3.32215e-20)
(0.614362 -0.0188248 0)
(1.09275 -0.298226 0)
(0.943386 0.0375944 1.59331e-20)
(0.992217 -0.106107 4.39564e-21)
(1.31946 0.383332 1.32831e-20)
(1.10918 -0.230616 -1.73545e-22)
(1.01676 -0.0745978 -4.92909e-21)
(1.03451 -0.358246 0)
(1.40447 0.404895 -6.77163e-20)
(0.666787 -0.00596926 0)
(0.817955 -0.025294 -6.52812e-21)
(1.04707 -0.0261881 3.46185e-22)
(0.594092 0.0163437 0)
(1.10041 -0.00650219 0)
(0.148444 -0.184678 -3.70042e-20)
(0.920396 0.0449821 -1.79604e-20)
(0.739626 -0.0220391 3.78896e-21)
(0.990992 -0.00435246 0)
(0.573673 -0.0193073 0)
(0.784223 -0.0182032 -6.34652e-21)
(0.53885 -0.0207268 -6.33776e-22)
(1.24492 -0.0501259 1.85647e-22)
(1.20535 0.18583 -4.31181e-21)
(0.738613 0.0146956 -3.47278e-21)
(1.07822 -0.041056 6.98329e-22)
(1.04687 -0.199438 1.63558e-22)
(0.571744 0.0116245 8.92803e-21)
(1.08634 -0.0950056 6.51016e-22)
(1.03315 0.0182136 0)
(0.95801 -0.339518 0)
(0.533286 0.0165018 0)
(1.03518 -0.000222019 0)
(1.2597 0.0565655 -3.1014e-21)
(0.956048 -0.0496392 0)
(1.08836 0.0126453 0)
(1.05674 -0.0689615 0)
(0.973433 -0.276769 0)
(-0.00560538 0.00620544 3.88872e-20)
(1.31388 -0.0262379 9.26844e-22)
(1.00398 -0.157918 0)
(1.4007 0.0729006 1.41606e-20)
(1.25492 -0.0691243 1.37645e-21)
(1.07361 0.0505633 6.90824e-21)
(1.15453 0.161721 6.04636e-21)
(1.21175 0.0558495 0)
(0.601767 -0.0110318 1.31492e-20)
(1.05409 0.0297803 9.63777e-21)
(1.00137 0.21069 0)
(1.20374 -0.142641 -2.71772e-21)
(1.15654 -0.13864 3.26196e-21)
(0.473778 0.277603 -4.76323e-21)
(1.15696 0.0625761 3.83808e-21)
(1.25754 -0.0733553 -1.58935e-21)
(0.829683 -0.00397036 0)
(1.12529 -0.158185 -3.06905e-20)
(0.883169 -0.0756143 -9.54162e-21)
(0.845153 -0.0936665 -9.88749e-21)
(0.958846 0.348781 0)
(-0.0142892 -0.0162571 0)
(0.98111 0.120378 -1.62643e-20)
(1.23064 -0.0432068 0)
(1.14717 0.0431113 -1.48146e-20)
(1.06745 -0.0295403 2.14107e-21)
(1.28676 -0.170019 1.52806e-21)
(1.06174 -0.0388396 -2.59982e-21)
(1.36184 -0.101842 8.02131e-20)
(1.0055 -0.307072 6.65904e-20)
(1.14392 0.0465474 -1.34922e-21)
(1.07458 0.277359 0)
(0.847009 0.140587 0)
(0.908722 0.00552964 -3.98655e-20)
(1.0792 -0.0313307 1.14257e-20)
(1.29321 0.0750533 0)
(0.627231 -0.425479 -7.42456e-21)
(0.517006 0.0365428 0)
(0.802751 0.397707 1.83701e-21)
(0.825149 -0.225291 8.65059e-21)
(0.82715 0.0312483 -9.88734e-21)
(1.04743 0.13875 0)
(1.06575 0.0119478 -2.49739e-21)
(1.02318 0.163738 4.38712e-21)
(0.81925 0.260558 -4.67886e-21)
(1.16956 0.119109 -5.66364e-21)
(1.02915 0.242159 0)
(1.08912 0.0532382 0)
(0.969596 0.302645 5.74487e-21)
(0.838858 0.317378 -1.85563e-21)
(1.0595 -0.100876 1.4846e-20)
(1.22231 -0.011591 -6.64688e-21)
(0.934318 0.254663 8.53889e-22)
(1.23067 -0.0417063 0)
(0.407274 -0.135369 1.15408e-20)
(1.28437 -0.0141404 -1.85453e-20)
(1.04324 0.115551 1.12722e-20)
(0.380992 0.405983 5.0352e-21)
(1.41402 -0.156243 1.54528e-20)
(0.952836 -0.27348 7.0867e-20)
(1.10255 0.275145 -5.89243e-21)
(1.16613 0.0152298 -1.66964e-21)
(-0.0815429 0.003203 -7.61581e-21)
(1.00154 -0.006929 0)
(1.03696 -0.0854315 -1.76272e-20)
(0.838367 -0.0251029 1.26939e-20)
(1.09865 -0.0507356 6.75136e-21)
(0.747717 0.0362031 -1.01885e-21)
(0.518368 -0.00900528 9.30024e-22)
(1.39231 -0.378517 -1.4705e-20)
(1.18174 0.0442512 0)
(1.0858 0.0380674 -4.05399e-21)
(1.14578 0.0465539 -3.59756e-21)
(1.24604 -0.0100374 0)
(0.840389 0.171483 1.56506e-20)
(1.15218 0.0215308 5.30128e-21)
(0.764632 -0.131039 1.42199e-20)
(1.12774 -0.00526545 -1.44914e-20)
(0.961519 0.266712 -7.33555e-21)
(-0.0477944 0.128569 0)
(0.609778 0.486423 6.9064e-21)
(1.19109 0.0662174 0)
(0.9692 0.220781 -4.33579e-21)
(0.806271 0.259643 0)
(1.10313 -0.0110532 4.78217e-21)
(1.01349 0.0226058 0)
(1.10541 0.188756 0)
(1.3953 -0.140073 1.40727e-20)
(0.789757 -0.0668826 0)
(1.29741 -0.319716 -2.7456e-21)
(1.0961 -0.0377063 3.83893e-23)
(1.08542 0.0541978 4.3231e-21)
(1.13492 -0.0619439 7.84342e-21)
(1.23767 0.0741396 -1.20003e-20)
(1.05624 -0.0819804 2.78808e-20)
(1.25011 0.0453734 0)
(1.20994 -0.0297158 0)
(1.17865 0.020616 2.38669e-21)
(1.15956 -0.00820409 0)
(1.52302 0.128746 -3.84486e-20)
(0.718002 -0.291037 -1.52698e-22)
(1.02599 0.00900209 1.77472e-20)
(1.26439 0.089029 -8.06452e-23)
(-0.0202033 0.0957691 0)
(-0.0107659 0.0221386 0)
(0.0608347 -0.174113 -3.2126e-20)
(-0.088912 -0.043047 0)
(0.774585 -0.366619 -9.01735e-21)
(1.17177 0.0245474 -5.04675e-21)
(1.20115 -0.109242 -6.19773e-21)
(1.26784 0.0979912 3.36758e-22)
(1.13057 0.00728519 0)
(0.70388 -0.00218284 -3.26108e-21)
(1.19584 -0.0333761 0)
(1.22265 0.0239058 3.43915e-21)
(0.495547 -0.107699 0)
(0.884993 -0.303252 -5.50898e-23)
(1.11109 -0.0373677 0)
(1.09665 0.0335549 0)
(0.943727 0.0241019 6.49316e-20)
(0.860576 -0.281644 8.8269e-22)
(0.774151 -0.312762 -3.53936e-21)
(1.0107 0.0182741 -1.24376e-20)
(0.096653 -0.080383 0)
(1.18645 -0.219656 -1.0484e-20)
(1.14725 0.122021 3.5513e-21)
(1.08691 -0.22128 -6.11311e-21)
(0.970924 -0.219811 -1.3831e-20)
(-0.0682397 0.086892 -1.01853e-19)
(1.06574 0.0223761 0)
(-0.0389065 0.0642739 0)
(1.09198 0.0822123 1.58156e-20)
(0.735961 -0.0219255 1.48879e-20)
(1.10467 0.065552 -9.2615e-21)
(1.11917 -0.0357271 0)
(1.17876 -0.131365 5.13585e-21)
(0.961109 0.0380453 -2.21279e-20)
(0.518736 -0.0417896 -7.27733e-21)
(1.1204 -0.0193376 -5.72237e-21)
(1.22367 -0.0336101 -5.14472e-22)
(0.195648 0.522297 -1.4179e-21)
(1.34267 -0.0922058 7.51969e-23)
(1.09992 0.0595229 0)
(1.09524 -0.0287592 0)
(1.16965 0.0300493 -3.93783e-21)
(1.1022 0.104052 -3.20976e-21)
(0.206331 0.106919 9.04754e-21)
(1.18384 -0.117986 -2.95875e-20)
(1.06549 0.0471164 1.93099e-20)
(0.526119 -0.00420035 1.6588e-20)
(0.536212 -0.21399 -1.15582e-19)
(-0.121511 0.0238253 -3.75335e-21)
(1.18846 0.161857 -7.12695e-21)
(1.21293 -0.478402 1.50328e-21)
(1.41987 0.122879 -1.35994e-20)
(1.16607 -0.0181364 4.66657e-21)
(0.929344 -0.212931 9.81562e-20)
(0.334589 0.0565917 0)
(1.11778 -0.125216 -8.35824e-22)
(0.663207 0.416275 -2.74362e-20)
(1.07335 0.0500028 -1.36848e-20)
(0.996795 0.0273001 8.50803e-21)
(1.10613 0.0377091 0)
(0.839185 0.0873096 0)
(1.16394 -0.0398706 0)
(1.08186 0.200336 4.58111e-21)
(1.26912 0.00834152 -1.16315e-20)
(1.14174 -0.0160419 8.619e-21)
(0.49255 0.0177306 0)
(0.646305 0.0136211 0)
(0.644261 -0.00406266 3.60179e-22)
(0.465591 -0.0166526 0)
(1.05988 0.0700203 0)
(1.01894 -0.00759468 3.30313e-20)
(0.486112 0.43424 0)
(0.920448 0.00387837 0)
(1.14974 -0.0818336 0)
(1.18798 0.164119 7.60971e-21)
(1.23299 0.0964365 4.29638e-21)
(0.953725 -0.0273422 7.93038e-21)
(1.27164 -0.394146 -8.89148e-20)
(0.503374 0.291297 -2.89258e-21)
(1.23422 -0.124355 8.92567e-21)
(1.26272 -0.197308 0)
(-0.00531196 -0.0705207 0)
(-0.308513 -0.346606 0)
(1.12376 -0.026174 9.71391e-21)
(1.30226 -0.282352 -2.53814e-21)
(1.2473 0.178557 0)
(1.12305 0.0157633 -1.41776e-20)
(0.182779 -0.180263 0)
(1.48581 -0.177895 4.72524e-20)
(0.429457 0.54847 8.32387e-20)
(0.243548 -0.0140679 0)
(1.08076 -0.273358 9.5428e-20)
(0.850555 0.0445233 0)
(0.299979 0.421474 2.25587e-20)
(1.33337 0.16788 0)
(-0.0195435 -0.312106 -8.74771e-21)
(0.984682 -0.0514467 0)
(1.18841 0.0829799 7.28815e-21)
(-0.175097 -0.0173348 -7.62513e-21)
(1.10396 -0.0199639 4.02897e-21)
(1.21902 -0.3266 4.07887e-21)
(0.55743 -0.479321 -9.63097e-20)
(1.11576 -0.11305 -2.82975e-21)
(1.18734 -0.124407 1.03909e-20)
(1.20016 0.226794 -6.61539e-21)
(1.06602 0.179384 9.73869e-21)
(1.11202 -0.0135938 1.74606e-21)
(-0.188571 -0.477366 -3.58648e-20)
(0.23633 0.100745 -1.23e-20)
(1.09701 -0.0898885 2.96044e-21)
(1.05967 -0.0423039 0)
(0.605389 -0.339834 -1.77589e-21)
(1.3796 -0.433815 6.01553e-20)
(0.898552 -0.067746 -4.14934e-20)
(1.50434 0.022054 1.05488e-19)
(1.08175 -0.0669888 6.61755e-21)
(1.35499 -0.152484 -1.25494e-21)
(1.06132 -0.0108999 0)
(1.17925 0.00457676 0)
(1.2357 0.0647321 -1.96404e-21)
(1.08468 -0.0240198 -4.28652e-21)
(1.10277 0.174968 -1.00404e-20)
(1.06094 0.0137357 -1.43688e-20)
(1.45552 -0.0260886 -3.49426e-20)
(0.629358 0.0125773 0)
(1.31866 -0.0671601 2.82102e-21)
(1.33506 0.209115 0)
(1.07299 0.0277471 -1.11416e-20)
(1.12628 0.00612313 0)
(1.04003 -0.00842881 1.89825e-20)
(1.19784 0.010356 1.40712e-20)
(1.19406 -0.133628 0)
(0.0538466 -0.0283308 1.32255e-19)
(0.881523 -0.190344 -7.69806e-20)
(1.34779 -0.0545584 -2.49268e-20)
(-0.155446 0.0458759 5.02982e-20)
(1.18313 0.0554012 8.95041e-23)
(0.909083 -0.15954 1.33467e-20)
(-0.111142 0.124668 -5.24216e-20)
(-0.0406498 0.154544 -3.6634e-20)
(1.01593 -0.028786 0)
(-0.0196917 -0.0121953 0)
(1.34568 0.161692 0)
(0.110161 -0.074138 0)
(1.09874 -0.0206053 0)
(0.13737 0.0403839 0)
(1.08008 0.0626956 0)
(1.23586 0.339281 0)
(1.15261 0.124265 -8.45738e-21)
(0.563974 -0.278199 -1.7338e-20)
(-0.192763 -0.0249848 0)
(1.10025 -0.102193 4.31681e-20)
(1.10538 -0.202565 -3.87398e-22)
(1.48862 0.121414 0)
(-0.033874 -0.0333375 0)
(1.12768 -0.00906845 2.12672e-22)
(1.12506 -0.0212528 2.94878e-22)
(1.19999 0.391255 0)
(0.165431 -0.038336 4.10636e-20)
(1.1125 0.037406 8.10274e-22)
(0.230344 -0.0505892 -4.5058e-20)
(-0.0608361 0.0618968 -4.75408e-20)
(-0.0233647 0.0518797 1.19076e-19)
(0.971983 0.406186 3.32333e-20)
(1.1992 -0.280278 -1.25598e-20)
(1.0837 0.0593733 -1.96077e-20)
(1.02069 -0.0103932 0)
(1.06813 -0.0640135 -2.67848e-20)
(1.18242 0.134324 -4.61746e-21)
(-0.00562551 0.0603341 1.09845e-19)
(0.971762 -0.0651611 -6.27807e-20)
(0.526604 -0.0663315 3.80489e-21)
(0.915541 -0.240313 -8.37843e-21)
(0.0741734 -0.0286122 2.77291e-20)
(0.242878 -0.0369358 -4.03899e-20)
(0.347507 -0.0380373 -3.72056e-20)
(1.07028 0.123931 1.46197e-20)
(-0.0457905 -0.0136621 0)
(0.732624 -0.0521156 1.68184e-20)
(1.34247 -0.0300273 -2.17929e-20)
(1.14568 0.118312 2.10086e-20)
(1.3407 -0.0444563 0)
(1.49413 -0.229253 4.97416e-20)
(1.10274 0.00747494 -6.29481e-21)
(-0.00105023 0.0304845 -3.38275e-20)
(0.599975 -0.0138788 0)
(0.942915 0.0105041 -5.51445e-21)
(1.1193 0.0377907 3.13422e-21)
(0.487895 -0.166937 -9.66148e-21)
(1.12369 -0.00892343 -5.09422e-22)
(1.11009 0.0313151 0)
(1.12231 -0.170513 -1.21214e-20)
(-0.144173 -0.0463102 -5.47505e-20)
(1.30858 -0.0238634 1.348e-20)
(1.11531 0.165925 -9.42963e-21)
(1.09716 -0.000505899 1.64335e-20)
(-0.0263598 -0.00104085 1.28425e-20)
(-0.0383089 0.0905048 -9.52285e-20)
(0.793419 -0.086959 0)
(1.03659 0.319112 0)
(1.15018 0.064893 -8.55345e-21)
(1.05362 0.0595116 9.56183e-21)
(1.16939 0.0127274 0)
(0.474534 -0.186706 3.20174e-20)
(0.913947 0.0515158 -1.70622e-20)
(1.10208 0.0863707 0)
(1.10956 -0.00173681 0)
(1.45522 0.307435 0)
(1.1729 0.126283 0)
(1.2918 -0.0806496 -1.23064e-21)
(-0.0425753 0.0549174 5.19365e-20)
(1.08612 0.106338 7.80681e-21)
(1.3819 -0.198829 -5.50813e-20)
(1.39543 0.0360061 -1.37429e-21)
(0.0892112 -0.346489 0)
(1.22729 -0.170015 0)
(0.654035 -0.0128557 -1.23894e-21)
(0.655684 0.00190722 -8.35773e-20)
(0.110983 0.0322701 6.64117e-20)
(0.991359 0.0329262 5.43348e-21)
(0.729764 -0.267483 0)
(0.665474 -0.0888585 0)
(1.33544 0.098175 0)
(0.56655 0.542669 4.37565e-20)
(-0.0332199 0.104708 -4.25475e-20)
(0.973265 -0.211079 4.07759e-21)
(-0.0111667 0.065274 6.06956e-20)
(1.0735 0.010237 5.39287e-21)
(1.19513 0.302617 1.26159e-20)
(1.11076 -0.0923707 1.25611e-20)
(0.287864 -0.420451 4.69623e-20)
(0.832906 -0.197955 6.88187e-21)
(1.30791 -0.29913 0)
(0.607477 0.290734 0)
(1.04702 -0.0347102 -1.06955e-20)
(-0.231514 -0.0256384 0)
(0.618203 0.0271085 4.81297e-21)
(0.589184 -0.404554 -2.13327e-21)
(0.29399 0.051048 -1.48477e-19)
(1.11148 -0.21593 4.47388e-20)
(1.06075 0.379409 8.55571e-21)
(0.980296 0.031012 0)
(1.13693 -0.204625 4.64759e-22)
(0.677589 0.0135816 0)
(0.987367 -0.00545638 -4.45421e-22)
(0.424763 -0.0126724 0)
(0.716107 0.161018 0)
(0.983483 -0.0265744 -6.06898e-21)
(1.47442 0.093441 -2.00372e-20)
(1.07926 0.0467592 6.50286e-21)
(0.508146 -0.473884 0)
(1.12523 -0.149965 5.79042e-21)
(0.819987 0.402479 6.31759e-20)
(-0.0224323 0.0179296 1.68668e-21)
(1.15292 -0.0264632 4.95073e-21)
(1.1744 -0.00456769 -1.07047e-20)
(1.03603 0.0720923 1.66457e-21)
(0.796164 0.00877397 -6.20372e-21)
(0.0965873 0.0170502 5.42205e-20)
(-0.0229238 0.117694 -6.31549e-20)
(-0.271894 -0.225479 0)
(-0.125385 -0.115394 0)
(1.16238 -0.599263 2.60313e-20)
(1.12454 -0.0228708 -1.70375e-21)
(0.870012 -0.453978 -3.22146e-20)
(0.852628 0.0781937 -3.1474e-20)
(1.44901 0.139893 5.01325e-20)
(0.640338 0.44689 0)
(0.256339 0.443208 -1.01852e-19)
(0.612907 0.51557 0)
(0.368224 -0.125369 0)
(1.10498 -0.460773 0)
(-0.0660873 0.177839 -1.22815e-21)
(1.18791 -0.00641689 0)
(1.05721 0.43827 -3.34075e-20)
(0.624277 0.729802 2.24623e-20)
(1.23285 0.3498 -2.164e-21)
(-0.0407979 0.00295209 -8.78828e-20)
(0.940083 0.421064 4.56513e-21)
(0.512195 0.155615 -1.7738e-20)
(1.18607 0.0342832 0)
(1.41962 0.327564 5.81408e-20)
(1.26747 0.575523 2.37034e-20)
(0.244816 -0.0372619 -3.28492e-20)
(1.19188 0.0486801 4.92103e-20)
(0.930348 -0.00101881 1.3925e-21)
(0.963532 0.0361496 -1.52102e-21)
(0.00122493 0.00128538 0)
(0.628563 -0.616737 -3.37211e-20)
(0.619034 0.235993 0)
(-0.00320145 -0.114792 0)
(-0.0590037 0.119881 0)
(-0.0379188 -0.0409339 -3.20535e-20)
(1.17973 -0.019176 -5.72562e-21)
(0.0142758 0.122314 0)
(-0.0538745 0.15636 0)
(1.40824 0.0305477 -9.81657e-20)
(-0.028011 -0.00934538 4.00351e-20)
(0.119436 0.258779 -9.57679e-20)
(0.501375 0.00817267 0)
(0.162868 -0.249113 8.40073e-20)
(1.06771 -0.235555 0)
(0.98613 -0.266919 0)
(-0.0254956 -0.0196183 8.12197e-20)
(1.12373 0.0117288 -8.40567e-23)
(1.1507 0.344053 2.09729e-20)
(0.326969 0.0253825 6.29938e-20)
(0.390574 -0.493281 -4.62747e-20)
(1.45484 -0.0480463 0)
(1.35454 0.147874 3.15396e-20)
(1.31761 0.176233 -3.87092e-20)
(0.105135 0.118409 -2.29416e-20)
(-0.0726546 0.14538 0)
(1.06943 -0.0470085 -2.00879e-20)
(1.08759 -0.208092 -2.19504e-20)
(0.571659 -0.367943 0)
(1.09293 -0.146204 -2.99898e-20)
(0.0563813 -0.18009 0)
(0.811603 0.016564 0)
(1.48537 0.061255 3.18504e-20)
(1.00695 0.00485499 9.27939e-22)
(1.11726 0.768197 -2.89768e-21)
(0.216735 -0.354673 1.42839e-19)
(1.08466 -0.0393007 -2.34348e-21)
(1.19108 0.0387145 2.17198e-21)
(-0.0682116 0.191759 4.48743e-20)
(0.827746 0.767583 1.31133e-20)
(1.3279 -0.361213 -1.27037e-20)
(0.177451 -0.309438 8.14197e-20)
(1.13574 0.0563648 0)
(0.554833 -0.366182 -1.09861e-20)
(0.877028 -0.61714 1.92428e-21)
(0.952862 0.671303 -3.97203e-20)
(0.533226 -0.03403 -5.13552e-20)
(1.12008 -0.0172841 -6.92931e-21)
(1.07532 -0.0819423 9.68123e-21)
(1.10355 0.0791316 7.42623e-21)
(1.10806 0.108433 8.0119e-22)
(1.12496 -0.12284 0)
(1.04253 0.0774865 2.15749e-20)
(0.952359 0.479939 0)
(1.1997 0.15566 -2.79958e-21)
(1.16129 0.0791186 -2.67939e-21)
(0.828615 0.275499 0)
(0.59903 0.114059 1.41621e-19)
(0.928876 0.742527 -3.94569e-22)
(1.09739 0.287798 -1.61068e-20)
(1.04257 -0.00997008 1.63262e-20)
(0.42825 0.531228 0)
(1.27368 -0.459037 0)
(0.751598 -0.379382 2.99935e-21)
(1.32978 0.509077 0)
(0.0080186 0.070868 -6.28236e-20)
(1.2615 -0.40281 1.10905e-20)
(1.20144 0.514913 0)
(0.457617 0.257603 1.63126e-19)
(1.21 0.320157 -1.62211e-19)
(0.796123 -0.606057 -3.06504e-20)
(1.12102 0.0784958 2.25753e-21)
(1.02353 0.150454 1.14087e-19)
(1.10096 0.159597 3.77788e-20)
(1.11824 0.728024 -5.5131e-21)
(0.887754 -0.410447 7.24593e-20)
(1.44286 0.0829836 5.63577e-20)
(1.10996 -0.00754309 -9.57228e-22)
(-0.00195019 0.00456132 7.26717e-20)
(1.05852 -0.679799 9.11745e-21)
(0.849953 -0.690467 6.63165e-20)
(0.24281 -0.285276 0)
(0.967464 -0.133441 7.81771e-20)
(0.371799 0.349884 -4.23512e-19)
(-0.217103 -0.205796 1.82582e-20)
(0.403704 0.0454409 3.50079e-20)
(0.662134 -0.0574471 -6.1328e-20)
(1.11517 0.545579 0)
(1.00293 0.2286 7.07812e-20)
(1.08298 0.0234134 2.70828e-21)
(0.93993 0.46551 -8.14502e-20)
(0.759282 -0.698339 -1.11755e-20)
(0.927483 0.0416496 -4.86319e-20)
(1.00325 0.50775 0)
(1.07798 0.31814 -7.0519e-21)
(1.35566 -0.501785 9.14886e-21)
(1.2099 -0.326629 7.56895e-21)
(-0.115854 -0.494234 4.62778e-20)
(0.194117 0.0521953 -1.79827e-20)
(0.971179 -0.104505 -5.85588e-20)
(0.370721 0.56444 0)
(0.923429 0.037033 3.87508e-20)
(1.21485 0.654485 1.12967e-19)
(-0.165447 -0.149037 1.14006e-19)
(-0.072571 0.19591 -3.80728e-20)
(-0.096162 0.0454465 4.33489e-20)
(1.08825 0.00537614 -3.51406e-21)
(1.10953 -0.450187 0)
(1.04317 -0.706892 -5.77086e-20)
(0.713839 0.380355 0)
(-0.0435959 -0.135943 -6.98408e-20)
(1.13064 -0.0184558 1.03181e-20)
(-0.027226 0.0642728 -2.49979e-20)
(1.05159 0.0441684 -1.23305e-20)
(0.160512 0.0324448 8.14184e-20)
(0.979016 0.119618 0)
(1.40495 -0.0584035 3.4157e-20)
(0.169517 0.0764952 -3.97348e-20)
(-0.310477 -0.323745 -5.48934e-20)
(-0.26721 -0.281193 0)
(0.0784862 0.0102599 0)
(1.363 0.00103666 -6.57173e-21)
(0.370386 -0.00925023 1.25573e-19)
(1.24024 -0.704821 -2.99611e-21)
(0.865839 -0.295328 -2.32497e-21)
(1.08997 0.24897 -2.22365e-20)
(0.353708 -0.516624 1.47553e-19)
(1.60812 0.208048 -5.01777e-20)
(0.02672 -0.000209034 2.70937e-20)
(0.215035 0.350691 1.88822e-19)
(0.0637683 0.0179732 -1.04204e-19)
(0.92957 -0.467787 -4.65009e-20)
(1.52193 0.363503 5.12198e-20)
(0.546494 -0.643002 5.46319e-20)
(1.10211 -0.0721162 -9.16948e-21)
(0.179447 -0.0761636 3.62884e-20)
(1.29495 0.28252 -6.83519e-20)
(0.685376 0.675679 -3.47587e-20)
(1.31122 -0.608181 0)
(1.50208 0.516664 4.54854e-20)
(1.03338 -0.505873 -1.13534e-20)
(1.45472 0.612578 -1.46957e-19)
(1.16524 0.0682013 0)
(-0.0526306 0.161191 0)
(1.30237 0.746896 0)
(1.13265 0.145825 -9.07419e-21)
(0.727051 -0.271414 -2.12243e-19)
(0.475991 -0.0477412 0)
(-0.0460868 0.19717 -3.7989e-20)
(1.00964 -0.23013 1.11788e-19)
(-0.266869 -0.29863 0)
(0.323787 0.0676195 1.2152e-20)
(1.11772 0.0625594 0)
(1.51127 0.233887 0)
(1.16507 0.0739697 -2.41716e-21)
(0.354169 -0.25116 0)
(1.02292 0.151043 3.17611e-20)
(1.39313 0.259433 0)
(-0.0904225 0.166067 -2.67333e-21)
(0.803561 -0.365012 0)
(1.56775 0.287634 -7.57247e-20)
(1.27366 0.361343 -1.15947e-20)
(0.868884 0.675342 -8.43413e-21)
(1.02123 0.153781 -7.8369e-20)
(0.955994 -0.18984 -5.36756e-20)
(1.51663 0.250366 4.42345e-20)
(1.19685 -0.014724 0)
(0.566102 -0.0388421 0)
)
;

boundaryField
{
    FrontBack
    {
        type            empty;
    }
    Top
    {
        type            noSlip;
    }
    In
    {
        type            fixedValue;
        value           uniform (1 0 0);
    }
    Bottom
    {
        type            noSlip;
    }
    Out
    {
        type            zeroGradient;
    }
    circle
    {
        type            noSlip;
    }
}


// ************************************************************************* //
