/*--------------------------------*- C++ -*----------------------------------*\
| =========                 |                                                 |
| \\      /  F ield         | OpenFOAM: The Open Source CFD Toolbox           |
|  \\    /   O peration     | Version:  2412                                  |
|   \\  /    A nd           | Website:  www.openfoam.com                      |
|    \\/     M anipulation  |                                                 |
\*---------------------------------------------------------------------------*/
FoamFile
{
    version     2.0;
    format      ascii;
    arch        "LSB;label=32;scalar=64";
    class       volScalarField;
    location    "1026";
    object      yPlus;
}
// * * * * * * * * * * * * * * * * * * * * * * * * * * * * * * * * * * * * * //

dimensions      [0 0 0 0 0 0 0];

internalField   uniform 0;

boundaryField
{
    FrontBack
    {
        type            empty;
    }
    Top
    {
        type            calculated;
        value           nonuniform List<scalar> 
15
(
142.2799092466483
133.5815229305841
138.0704691331788
144.410294536614
159.7730117436845
131.3688653004598
140.1330532230199
135.3625602144174
153.4412260645512
135.7412500793521
136.0972775749054
136.769292730722
125.2552170848971
132.9072010091238
123.9485991323135
)
;
    }
    In
    {
        type            calculated;
        value           uniform 0;
    }
    Bottom
    {
        type            calculated;
        value           nonuniform List<scalar> 
15
(
155.5652736328559
158.1158068049066
141.0839074019045
142.0541393591269
141.1790288591738
148.4313721946716
142.6996232252093
143.1577446944825
143.4235872311787
134.0545333552982
125.7284507871939
141.5513894340381
122.4090753300279
123.4903253687335
124.1344893977648
)
;
    }
    Out
    {
        type            calculated;
        value           uniform 0;
    }
    circle
    {
        type            calculated;
        value           nonuniform List<scalar> 
32
(
56.33228827992451
22.24803930876779
65.33448283056963
23.44304818517537
19.09569482506474
56.14304208602443
56.80443874506366
24.0692910451013
22.39861510813322
65.55934526726422
40.14081897840318
63.05599092030467
50.32089495494788
13.84234993355423
23.76920815519952
18.46905002908462
38.92070124430647
59.59216179331821
60.98150633197587
24.43663061550444
65.69969124294725
63.84438974032131
62.94164529192835
59.95015356404691
64.07584450830319
45.91550295275147
66.34432856893881
32.01797167361214
38.05404367383701
55.78475619165129
20.9682510271539
43.18939888131661
)
;
    }
}


// ************************************************************************* //
