/*--------------------------------*- C++ -*----------------------------------*\
| =========                 |                                                 |
| \\      /  F ield         | OpenFOAM: The Open Source CFD Toolbox           |
|  \\    /   O peration     | Version:  2412                                  |
|   \\  /    A nd           | Website:  www.openfoam.com                      |
|    \\/     M anipulation  |                                                 |
\*---------------------------------------------------------------------------*/
FoamFile
{
    version     2.0;
    format      ascii;
    arch        "LSB;label=32;scalar=64";
    class       volScalarField;
    location    "2.9";
    object      p;
}
// * * * * * * * * * * * * * * * * * * * * * * * * * * * * * * * * * * * * * //

dimensions      [0 2 -2 0 0 0 0];

internalField   nonuniform List<scalar> 
808
(
0.122823
0.0171231
0.0137393
0.115206
-0.28014
0.0270909
0.0297092
0.022416
-0.161409
-0.0310207
0.0375194
-0.185903
0.0289613
0.0161166
-0.341237
0.0228349
-0.34896
0.0168704
0.0181604
0.0337437
0.0385065
0.324488
0.0554682
0.011907
0.403933
-0.131014
-0.0837458
0.00540911
0.0105327
0.0130356
0.010238
0.0214801
0.0137387
0.0044569
-0.0760172
0.565879
0.0140308
0.00639334
0.0267359
0.0183658
-0.0459402
-0.0736556
0.0229023
0.0288093
-0.046007
0.0611054
0.0183001
-0.030675
0.0267905
-0.191763
0.0369514
0.0110346
0.0458749
-0.00129926
-0.13076
0.0287866
0.000622711
0.0298936
-0.0379628
0.048876
-0.0407565
-0.0257347
0.0314717
-0.166988
0.0332554
0.0342901
-0.32087
0.0161772
0.0376578
-0.331414
0.0231262
-0.373273
0.034945
0.0209956
0.139841
0.0401599
0.0139807
-0.153607
0.0373819
0.24824
-0.0897775
0.0198241
0.013665
0.232059
0.0411976
-0.00257332
-0.417472
-0.159939
0.0319835
-0.192697
0.0341666
-0.10745
0.201687
0.110735
0.00878927
-0.270373
0.0200767
-0.0407768
-0.10422
-0.248163
0.0325242
0.0339568
0.0346821
0.00419765
-0.0362446
0.0373133
-0.0326918
0.00862575
0.0471706
-0.0104443
-0.00648121
0.280914
0.0527152
0.039435
0.0187563
0.403478
0.0299891
-0.319889
0.0251181
0.0394381
0.111559
0.0436629
0.0277998
0.0262055
0.0718635
-0.105012
0.0886029
0.0435636
0.0107412
0.0406408
-0.408362
0.0304204
-0.0350652
0.0605013
0.0184123
0.0406282
0.0335347
0.00513025
0.0275766
0.0341397
-0.472279
0.0217766
0.0262322
0.0289497
-0.0779063
0.0415932
0.0957103
0.115415
0.0693434
0.00731052
0.0262744
0.288116
0.0218433
0.48204
-0.423193
-0.124008
0.0272105
-0.13775
0.0290142
-0.125887
-0.388296
-0.455426
-0.386877
0.0215547
0.0407476
0.0221266
0.0268422
-0.42899
0.0300035
0.0361398
0.0446945
0.106236
0.0410187
0.0745927
0.0280194
0.0589727
0.0409636
-0.164399
0.0337454
-0.408391
0.0239789
-0.193989
0.0238512
0.223739
-0.245213
0.0753872
0.0306607
-0.122412
0.0261155
-0.0902463
-0.428074
-0.0410228
0.0209893
0.0739818
0.0280084
-0.452551
0.025596
0.0288442
0.0206805
0.0533307
0.036323
0.0294439
0.00737995
-0.390311
0.318585
-0.385097
-0.389275
0.000100122
0.0147683
0.0261741
0.00476091
-0.466486
-0.342458
0.0268769
0.0048937
0.0254243
-0.3923
-0.114812
0.00756811
0.0302077
0.000665459
-0.162862
0.0202967
0.0282605
0.016057
0.00720052
0.0848532
-0.338276
0.0287818
0.0151123
0.0871574
0.0223084
0.0215833
0.0151271
-0.0529386
0.0171402
-0.0084367
0.00213707
0.00494296
0.0277793
-0.00134224
-0.00208791
0.00460009
0.015081
0.0039394
0.00482272
0.00683084
0.00101457
-0.000155619
0.0407176
-0.390794
0.00959741
0.00213235
-0.0200903
0.00289736
0.029357
0.0195753
0.000883177
0.0278477
0.08258
0.0266204
0.00675011
0.00080072
0.0601868
0.0185145
-0.00288436
0.00355862
0.0388708
0.00698186
0.0216333
0.0221048
-0.469526
0.218548
0.00763752
0.033889
0.0116195
0.0188518
-0.00105798
-0.185153
0.230979
0.0191665
0.0190649
0.00516399
0.0707334
0.0221132
0.013221
0.0339626
0.0547877
0.0203231
0.0284368
0.0343729
0.0252393
0.0118894
0.0137052
0.0231596
0.0163587
0.0261103
0.0387785
0.0220234
0.0143636
0.00568685
0.00918856
0.0160785
0.00443829
-0.562132
-0.0935885
0.0254941
0.0718746
-0.185504
-0.166076
0.0246798
0.0181519
-0.412785
0.107483
0.11317
0.0148893
0.0245781
0.0317361
0.012155
-0.268755
0.026849
0.000732434
0.0184603
0.00319356
0.0125891
0.0323183
0.030579
0.0239718
0.0155242
-0.363785
0.0794098
0.0277276
0.0622078
0.0594948
0.0221204
0.167443
0.0158514
-0.156832
0.493226
0.0398012
-0.000999221
0.0223728
0.0146608
-0.0814199
0.0225605
0.029125
0.0373716
0.0254843
0.000179766
-0.340391
0.0296383
0.056988
0.0113992
-0.35693
-0.384721
-0.426552
-0.430873
0.0317561
0.0277204
0.0334901
0.0410981
0.0123688
0.00593884
0.0320636
-0.000546266
-0.557604
0.0346732
0.0342621
0.0183263
-0.00756478
0.038472
0.00634134
0.0968031
-0.457392
0.0317729
0.031017
0.0278536
0.0457678
-0.365662
0.0379774
-0.443791
0.0362758
0.0559335
0.0227325
0.0295079
0.0384348
0.100481
-0.40842
0.0249138
0.0363578
0.0951181
0.0474659
0.0288391
0.0328535
0.0326412
0.03702
0.0847774
0.0135418
0.028824
0.0111798
-0.0898402
0.162752
0.00455703
-0.0499816
0.0133276
0.0278889
0.377901
0.0717912
0.00477268
0.114358
0.0328524
0.033538
0.0355342
0.0596521
0.0103517
0.0561228
-0.0136704
0.0260693
0.00143248
-0.00383556
-0.00551625
0.00643971
0.0179416
0.0974666
0.0720732
0.013483
0.00464919
-0.0306429
0.0192822
0.0329745
-0.420461
0.0739303
0.0382828
0.00454585
0.175711
-0.224991
0.0178919
-0.126577
0.0360229
0.0321988
0.0622149
-0.272932
0.150282
-0.383382
-0.506962
0.0765947
0.0850529
0.0394401
-0.218627
0.307773
0.0399271
-0.423415
0.0224349
0.0431259
0.51464
0.0101127
-0.00616466
-0.001364
0.0619062
0.0164454
0.0686026
-0.440065
0.0441625
0.0637592
0.0453542
-0.302529
-0.392215
-0.277736
0.0252872
0.0473148
0.0717248
0.0103167
0.0421792
0.0419465
0.0739521
0.0284194
-0.1321
-0.441518
0.0509324
0.0318142
0.0275419
-0.00375298
0.0730097
-0.0516759
0.008944
-0.531866
0.407671
-0.161889
-0.395439
0.0125248
-0.000460059
-0.394674
-0.37123
0.101065
-0.404439
0.0253357
0.788408
0.0233248
-0.416095
0.0302039
0.0525136
0.0398437
-0.499942
-0.398344
-0.370977
0.00806469
-0.00858779
-0.426708
-0.00902941
0.00436122
0.0308313
-0.421144
0.0123758
-0.561116
-0.459111
-0.530868
0.129244
0.00425744
0.0306652
0.0869122
0.105878
0.022631
-0.345323
0.254718
0.051387
0.00936436
-0.506483
-0.560039
-0.414428
0.0434359
-0.415612
0.0500824
0.0536396
0.0579171
-0.0712036
-0.274459
0.00312852
-0.365591
-0.438323
-8.0965e-05
0.0272467
0.0134399
0.00405578
0.0113034
-0.4384
-0.457886
-0.0691812
0.0530106
0.032076
-0.401317
-0.425902
-0.204299
0.0697509
0.00856414
0.0733737
0.00211224
-0.308758
-0.429082
0.0521652
0.0375005
0.0533446
0.0247181
0.0306122
-0.466485
0.0258932
-0.315633
0.0257885
-0.151449
0.0490241
0.019022
-0.511065
-0.60595
-0.000150683
-0.516611
-0.523756
0.0282993
-0.156185
-0.39151
0.0107059
-0.349307
0.0268907
0.0225701
0.0364237
-0.0883937
0.0456794
0.0482034
-0.568895
0.0103527
-0.408549
0.027793
-0.347428
-0.652099
0.0585539
0.206051
0.407654
0.00454323
0.0155532
0.00306534
-0.40462
0.585533
0.0345411
-0.271108
0.0180977
-0.100046
0.0614193
0.422074
-0.516025
-0.0122759
-0.031959
0.0285411
0.0146939
-0.603916
-0.342952
-0.393583
-0.366206
-0.311946
0.0202308
-0.395167
0.0518454
-0.351785
-0.410685
0.437998
0.517895
-0.419262
0.0709763
-0.390519
-0.00152205
0.0738168
0.332633
0.0666336
-0.402107
0.0786858
-0.64101
-0.0373205
-0.281363
-0.0972953
-0.439996
-0.381599
0.0185913
0.015487
-0.382281
0.399455
0.609623
-0.458133
-0.439113
-0.448023
-0.0325853
-0.436492
-0.411212
-0.195857
-0.390165
0.679659
-0.465854
0.677849
-0.472169
0.289702
-0.399018
0.00189215
0.109786
-0.641576
0.183312
-0.354522
-0.417312
-0.447911
0.795057
-0.381703
0.185053
0.102617
0.580929
0.104098
-0.405978
-0.43514
-0.0716319
0.00598665
0.00863628
0.467548
0.00739288
-0.0391091
-0.417309
0.0403728
-0.171481
-0.0876814
0.0296527
-0.316546
-0.192122
-0.244154
-0.435748
0.0118485
0.0980239
0.0328959
0.0366887
0.0746612
-0.459498
-0.45988
0.043391
-0.00576191
-0.584801
-0.645417
0.100758
0.126109
0.0587065
0.596967
-0.127614
-0.0954761
-0.485073
-0.417314
-0.108971
0.0114341
0.693676
-0.576903
0.329783
0.0283081
-0.574644
0.0971493
-0.159193
0.3403
-0.196566
0.00915666
-0.395666
-0.115528
0.153465
0.743602
0.291438
0.687745
-0.436707
-0.430195
-0.481027
0.0966822
0.214058
0.0459876
0.316903
0.098444
0.446225
0.212481
0.0531862
-0.232139
-0.0212396
-0.192508
0.808284
0.367074
0.576317
0.459568
-0.357887
-0.475321
-0.409107
-0.387149
0.020086
-0.449979
0.0620128
0.529566
-0.496547
0.00735488
-0.363458
0.118279
-0.449311
-0.505776
-0.0884415
-0.424834
-0.308393
-0.35172
-0.398521
-0.0717989
-0.48776
-0.173495
-0.0733008
0.0739673
0.593996
-0.287564
-0.402618
0.752516
-0.387526
0.246103
-0.319371
0.341311
0.0714178
-0.473417
-0.526651
0.372534
-0.318161
-0.421579
0.147635
-0.367031
0.0234337
-0.426886
-0.204003
0.0163571
0.514115
0.71097
-0.429132
0.186226
-0.0564264
0.749684
0.0312602
-0.409263
0.0248239
0.695437
0.15612
-0.422929
-0.431262
0.406119
-0.282664
-0.0301383
0.280281
0.209501
0.258935
-0.327479
-0.399369
0.625219
)
;

boundaryField
{
    FrontBack
    {
        type            empty;
    }
    Top
    {
        type            zeroGradient;
    }
    In
    {
        type            zeroGradient;
    }
    Bottom
    {
        type            zeroGradient;
    }
    Out
    {
        type            fixedValue;
        value           uniform 0;
    }
    circle
    {
        type            zeroGradient;
    }
}


// ************************************************************************* //
