/*--------------------------------*- C++ -*----------------------------------*\
| =========                 |                                                 |
| \\      /  F ield         | OpenFOAM: The Open Source CFD Toolbox           |
|  \\    /   O peration     | Version:  2412                                  |
|   \\  /    A nd           | Website:  www.openfoam.com                      |
|    \\/     M anipulation  |                                                 |
\*---------------------------------------------------------------------------*/
FoamFile
{
    version     2.0;
    format      ascii;
    arch        "LSB;label=32;scalar=64";
    class       surfaceScalarField;
    location    "1169";
    object      phi;
}
// * * * * * * * * * * * * * * * * * * * * * * * * * * * * * * * * * * * * * //

dimensions      [0 3 -1 0 0 0 0];

oriented        oriented;

internalField   nonuniform List<scalar> 
1171
(
-0.9279393224649759
0.9279393225780896
0.7873922426339189
-1.099021025977893
0.311628784008152
-0.1924774290875928
-0.7649929453639219
0.9574703737901794
0.07206066239188455
-0.1167485078040683
-0.2120756266839036
0.3288241324713825
-0.7873922318861875
0.06945910791696816
0.7179331239786012
0.8116009137342634
-0.1777102884621765
-0.633890625750177
0.8744110128152807
-1.043947168668343
0.1695361558143773
-0.2852103712693261
-0.09726534757311274
0.3824757186448568
-0.03594360966695509
0.5487397977425092
-0.5127961879779527
-0.5027885168352472
0.8247619499970594
-0.3219734321235256
-0.4019588843472871
1.046037562374506
-0.1716265407551254
0.3940746795287815
0.04775778006688471
-0.4418324624342672
1.046172726483528
-0.0001351601101884076
0.4437844250371506
-0.04970975255746639
1.05685675673078
-0.01068402713193879
0.5779631492139693
-0.7704405777536397
-0.724443259319882
0.5569966110320218
0.1674466482550435
0.2206302768949674
-0.7234187950177059
0.550643871320303
-0.9228859732114866
0.3722421018949043
-1.094164005298228
0.6864094670643253
0.4077545380864434
-0.5954680173736455
0.5595244122776024
0.01824010456605558
-0.2570348133296567
0.2387947108205958
-0.02407844627271133
-0.5211628212319963
0.545241263115142
0.4002872513050643
-0.4975526032644479
-0.9188285756984126
0.9414281697077237
-0.02259959378451066
1.06750333348817
-0.01064657467807601
0.9349974629751973
-1.116776332728039
0.1817788696852089
1.06704006883123
0.0004632666044497309
-0.6644423258738281
-0.0600009359953259
1.262323668316756
-0.8642518467904574
-0.3980718216046714
0.1482114936864594
-0.1090623371882672
-0.3264635664078707
0.4355259036146032
-0.2857175588558766
0.1910078709664301
0.09470968721404308
-0.5835294516834868
-0.5154915823262844
1.014014249806337
-0.07901678097035723
0.009943973836204227
0.8254443758624342
-0.8353883496014974
0.5718868160683751
0.6904368576491022
0.4396774595901974
-0.03016201735535668
0.430449267697306
-0.8077520838439378
-0.1025324825142189
0.910284566164035
0.5023858513359571
0.2536607099485661
-0.7560465610513596
0.005663513733417485
0.5270281325030405
-0.5326916484709224
-0.4898657694604461
-0.6042982289539153
-0.422837898634303
-0.6939384269206711
-0.02705587361536029
0.2700363205069965
-0.2429804465264492
-0.9247237326176998
-0.005090353545881344
0.9298140862566712
0.3085283397946246
0.0739473736706734
0.7622258629560762
0.04937505392848425
-0.5331673658946962
-0.06230065172902046
0.04621891495822738
-0.8539709969987406
0.07484031097407864
0.8630742784282753
-0.9379145892241216
-0.3471319092625406
-0.04158466343423103
0.3887165742725972
-0.6821912263975316
-0.242532512991481
-0.6322315486232915
0.7070718579264635
0.6108864829132404
0.2138754655584309
-0.5429581974681742
0.9459174141211417
-0.7792872297896245
-0.166630184121035
0.01988740525552084
-0.01861744676294848
-0.001269955959262842
-0.4031043851031205
-0.09444821663348422
-0.241032683964207
0.8519191629550082
0.04626149818246802
0.3356892427908682
-0.3819507406558536
-0.4602256449346707
0.9626114937401921
0.6802161708401551
-0.7827486493471197
0.3204212766140488
-0.01785946595610238
-0.3025618045785294
0.9307126929141197
-0.9307126928913146
-0.7821990794059592
0.110455735078613
-0.3225313626989766
-0.7500084197793762
0.7599523868909042
-0.08988474387889443
-0.1432088239270521
0.233093569061038
0.8650102994700192
-0.0395659337476982
1.054183313073527
-0.8005226048498177
0.1860473708817903
-0.3154859821598502
0.1294386102529885
0.8593579892599992
-0.09713212661782041
-0.6118005570387745
-0.03907285367863755
0.6508734108037284
0.1237745194134404
-0.2311529021916245
0.107378383525981
0.8057053995152373
-0.9834156845505753
-0.4354685239280436
0.3296912101615748
0.1057773124496506
0.5313677271510155
-0.5554461699593123
1.022009302567903
-0.4562068186832526
-0.5658024837289855
0.5991714012547965
-0.7193946864551388
0.06687297248723091
0.652521713477907
0.1033114251273931
0.5702414834892258
0.05515932790890078
-0.6254008115212525
0.1939822204107833
-0.08352649675690084
-0.4931970764918188
0.1460651774576435
0.05029814650299407
-0.8867608714219696
0.8364627248746485
-0.4734050272656779
-0.7134715178888058
0.0490291919240208
0.437065358130281
-0.006616083821452321
0.29981211807217
-0.8552255733044053
0.5554134555825654
0.41571727984406
0.5842827199662445
0.5604678344881748
-0.5142489151919916
-0.3666827842200283
0.03510640149916133
0.3315763852342786
0.6813758212542235
0.2493368762797949
-0.5655180792246994
0.5711815881161235
0.1106017869442821
0.8751644964617893
0.01017744644081184
-0.6219780004314813
-0.7492782088606025
0.7995763496253366
0.5311686296004958
0.07036175602585046
0.3023357778311597
-0.3726975343668542
-0.1675615201705891
0.4416515790828329
0.08537655695943382
0.876681537238608
-0.7996197064421825
-0.07706183062945787
0.6353421277319781
0.3105752886584735
-0.4301602580836197
0.5748394705850481
-0.5044777113768014
0.417228416291582
0.1334154529663366
-0.04684909922064443
-0.5928221011413478
-0.137282225549139
0.7301043265492185
-0.1497624117969669
-0.7809502790337459
-0.6109897671201756
0.3607795829365151
0.2502101842144673
0.6221643725524054
-0.6119869271017541
0.2389393876138699
1.011235096619337
0.04294821493135391
-0.7492782103890389
0.2310956566173168
-0.2112082500656205
0.6802161679705819
0.801947882367593
-0.8019478822396264
0.8377317036047721
-0.8332997006280347
-0.004432002856712068
-0.4453916555400999
0.861108934672979
-0.147493350587537
-0.345703719610302
0.7346979524538845
-0.6684528613779217
-0.06624509114826671
-0.7319191179085743
0.1390970186422817
0.1386760336170373
-0.6718434043420971
0.782748629925313
-0.9503101501056507
-0.3668865538668374
0.2917579275276196
0.07512863615525517
0.1459701255951857
-1.009668117277217
0.8636979917235298
0.4812467677213913
-0.04156930814093349
-0.3081875506547713
0.5865069899741533
-0.2783194394694455
-0.7383910975108375
0.8843612302847539
-0.1571228554223125
0.733119914178844
-0.8432706477500538
0.1101507345030696
0.9766690422905263
-0.5413470035864441
-0.4353220384579277
0.7550987837169271
-0.06498139420412642
-0.03221374404201383
0.1868943849040958
-0.1546806424278059
-0.7757721757663609
-0.8456946584078655
0.08070171161324885
-0.7500084257177607
0.5138120643299263
-0.5553967177187004
0.09251314026980433
0.7202040431879192
-0.8127171835106601
0.7537102305968484
0.1742290817538514
0.5028862660652323
0.4971137339390179
-0.04961266201515474
-0.6087381904535288
0.6583508503367609
0.8839216129478932
-0.007240075009943873
-0.7550987837169345
0.7995763438908061
0.1910418128271544
-0.4480766228821152
0.01984734729509186
0.002561523107734613
-0.02240886973310298
0.5887292668253992
-0.4383226792141445
-0.1504065883841493
0.7179331153353756
0.01254962091567854
-0.112574744714694
0.4370044554224015
0.1517248162740637
-0.01513036808642709
-0.005376395303816315
0.02050676144872284
-0.03233971093460098
0.0001259709447695007
0.2434032466357115
-0.2612627065250953
-0.959070739125455
0.001566987414872394
-0.1594943952631346
-0.1234833090492419
0.09442572439560482
0.721578810900617
0.7290571370918922
-0.1447744182185667
0.6660047523615369
-0.5734916145142955
-0.2117219287981786
0.3977693048712873
0.6954428769402576
0.02249023846734398
0.2416508600488812
-1.074950573101658
-0.9503101532455319
0.3019122566457491
0.759952380549014
-0.2086559567664145
0.06544713512526909
-0.7231458034066282
0.9105077761245902
-0.1873619724531852
0.4158935441084933
-0.02717695939966648
0.7714813216895329
0.2806053174553883
0.3722683023684772
0.07151612244289478
-0.65868808716712
0.6586880871507866
0.2146108173655069
0.6956737510699172
-0.05517292069782007
0.3908621616696099
0.3803529848698991
-0.01574989255512901
0.03559726289362639
0.4493183793797266
0.03192838932356862
-0.7383910927708762
0.5341213245083507
0.200576621142438
0.3055237776141948
-0.1186293667896873
-0.6954428750408598
0.1802491585905097
0.7302586215124369
-0.01014597971946748
-0.8137309303187813
0.8238769099839139
0.6962798865522043
-0.7921127525469683
0.09583286578532554
-0.7537102241011392
-0.1495056176210454
0.2107780858930052
-0.06127246915584519
0.07711402373974661
-0.1800022385735674
-0.111756906943113
0.2917591428304475
-0.009795043939300956
-0.005335332900398337
0.7064010443483509
-0.7165470268493521
0.8847915811832233
0.07267879186301207
-0.3114367285647713
-0.5201363221986979
0.8315730501136546
0.1025763142667817
-0.1025763174795023
0.3268643451382629
0.4787605688084482
0.6097425702905782
-1.088503138541472
-0.1941498928919164
-0.5856148904839862
0.7797647833630958
0.01217639059767701
0.2209171832145636
0.3772346604592939
-0.253460148201928
1.013010981554915
-0.5342504118511296
0.6645571956191204
0.9934932449813565
-0.3837506742889188
0.2297413116537311
0.8843612325200925
0.712734694701689
0.2136774743739759
0.7277506950186106
-0.7809502755153394
0.341311934007253
-0.2792942926010588
0.2485030517124789
0.03079125028468775
0.8508461119907322
-0.01552462119982354
-0.8353214910339513
-0.7020506692144437
0.7025139354289063
0.5546083496899846
-0.7020506687114407
-0.7127346946220549
0.7025139368699888
-0.03415034921054577
0.903634794881862
-0.01884321532624993
-0.6813758203119004
0.6123162808700325
0.06905953952059003
0.5389025855886457
0.5378491643001921
-1.076751750017688
0.4916997434239604
0.5213112380011176
0.544716004854839
0.4596784898782441
-1.004394494706257
0.4984716951067004
0.4950215500073409
0.6123162798892106
-0.5256393516078323
-0.4656568514614357
-0.5558663428305687
-0.5188352918231051
-0.1230666115059349
-0.0124179937460233
0.01241799335345687
0.5110121884538971
0.5233742429920597
-1.042209534649502
0.5751552261501046
-0.2728194466426802
-0.8845587353940546
0.3432117300396693
-0.6327715781966032
0.3902390643397533
0.0008984690009237663
-0.8306866177180908
0.8297881490643647
0.4208695816701249
-0.0195559337306751
0.8704020446780345
-0.9436682770837584
-0.8353962450993452
0.05686463261308575
0.7785316128118236
0.5531144659210357
-0.4364605668151131
-0.1166538997976776
0.6499387315632418
-0.7289555095371202
0.8832751999625861
-0.8311735743550107
-0.05210162541602645
-0.01015696174543965
-0.789462744438816
-0.1101745498309068
0.7160294736379061
-0.6058549237831795
-0.9378930372251144
0.9277360763462301
-0.7355534021892455
0.6904246082303452
0.04512879406322119
-0.8043360888284129
0.03326170315167724
0.7710743856512426
0.06163533519108726
0.04094096475202018
0.4332275663082176
0.06039307346515949
-0.8500961687569956
0.7897030955198325
-0.6426909339562025
0.5930782733066386
0.8909812358436159
0.0707455058756951
-0.9617267412312188
0.0555849932924348
-0.04826660018751444
0.3798429913697213
-0.3812421652672416
0.06575619176883155
0.84174098443247
-0.8408425121197268
-0.7316572983796097
-0.8075616525066734
0.01809890973230063
-0.1670866088322251
-0.850310476433998
0.01913690393805203
0.6254026696634922
0.04060207580162645
0.02196634292672341
0.5311481287968574
-0.8094410989130817
0.8427028007796075
0.5658024837828313
-0.8502425474767255
-0.8671475289207563
0.03648726704223142
-0.03946901983545229
0.836562571517815
-0.7970935515910746
-0.02052232083102502
-0.7711263194334139
0.5443363852963871
0.1519435079127953
-0.02712147209636163
0.8975235180009515
0.9846007107026178
0.8607427394425025
-0.8416058334098455
0.1473119993132183
-0.1473119964767072
-0.1184417195540585
-0.476344162768243
0.03988359629410933
0.2713489555382391
0.0305633010104342
0.3848179215099169
0.8770011969912593
0.003177060875352944
-0.01297210878605609
0.6586183703699233
0.3413816295962275
0.7834915743015303
-0.5835294526026347
-0.7780323685772129
-0.812618173991719
-0.6799143415938206
0.6799143416674841
-0.1678331921937943
-0.1546981774110849
0.6014820088405984
-0.8118140643645518
0.2103320555768364
-0.493746429603992
-0.5689508490438547
0.2782133906316255
-0.9721518165477622
-0.9005976390330067
0.848496015578625
-0.8191063609064938
0.8372052704453498
0.6485938571462367
0.1345460545582434
-0.7831399117535612
-0.7674893796157554
-0.1459715141776904
0.7248112394033498
-0.5788397255090323
0.02359644136268288
-0.01498422324620036
0.01800704943344408
-0.003022827398004897
-0.3544488262738724
-0.1218953359939642
0.8796953969209741
0.7378724615501518
-0.2402495410810405
-0.497622922045988
0.6212185630589965
0.6853210946264429
-0.4707102753795975
-0.0007724991330191229
-0.2849450605134881
0.02294540949720361
0.743868910271317
-0.7668143193777196
-0.3235579604584248
-0.07150935311705157
0.07548938855175298
-0.9620545610928605
0.1267330694946174
-0.6772680133018163
0.05276258099067571
0.6411516629852008
-0.6939142442123302
-0.7569884095325227
0.07972039631804205
0.5889293280661406
-0.6604386811023775
0.1559897803224473
-0.3359920247703352
-0.7717995735320192
0.004310193717813868
0.3712431662186357
0.6012618739378731
-0.02642240311809809
0.02437276766368912
-0.02437276429562112
-0.01779439621550009
-0.05276370064281637
-0.2265306152792215
0.01886575491036928
-0.01568867360889115
-0.7311975001883142
0.2793954035111888
0.6788876548146077
-0.690526714739922
0.01163905987589179
-0.5984314692735219
0.6511940500083186
0.6535338348936466
-0.06460450924216844
-0.6316972919509682
-0.1252911131012167
-1.049612774077646
0.01121766056099343
0.1360943442784907
-0.7082520980762739
-0.7418718343452476
-0.7635174956267399
0.3654456790276732
-0.4115391634453974
0.4709349739305051
-0.05939580760667336
-0.6787477964123237
-0.02950430183601048
0.5001709387902648
0.7306790260289939
-0.2331949753917881
0.1097116617929622
0.957744368072159
0.4456910673944789
0.1336963751925618
-0.5793874426895876
-0.678465347070031
-0.0002824569863581179
-0.04447966431074328
0.02949544718056321
0.6375359538614837
-0.7748181778339607
-0.002846445910220679
0.002846448579025104
-0.6001400152818311
0.6486827178038904
-0.04854270331444021
-0.6564990087306474
-0.1135787624354079
-0.6717869113581832
0.04899816066770557
0.6093526887132689
-0.1373292447733303
-0.8177584208639075
-0.555762553758341
0.5691278972406464
-0.01336534877192706
0.6342402419063758
-0.6226011835437676
0.3221962930464363
0.2140263724043682
-0.536222665369118
-0.1043358815855243
-0.6029936268999367
-0.0909206179774973
-0.1544489499418125
-0.5067643984180654
0.404282164793765
-0.4987303824222694
0.1261354650644665
0.6785117115725852
-0.8046471762922746
0.599171401275935
-0.3741581499551606
-0.03738101442021857
0.06404642074871809
-0.5708108299309745
0.5517680132655283
-0.04031233576430555
-0.5114556771126052
-0.3122180820328241
0.3048101361937138
0.007407943181929128
0.4518598795543435
0.1232953496290095
0.0505402129512643
-0.3157700025760639
0.156688388525621
0.1590816136420046
0.2499467870476644
-0.01885112226614603
-0.2973226379740365
-0.3139932311552353
0.3678141676028967
-0.053820944731402
0.7912902637377169
-0.6293250398517606
-0.02717396992398501
0.4995234726297367
0.2824863039251013
-0.5227358438401978
0.5774615328072462
-0.5774615328222844
-0.28978080378687
-0.5865079068625593
-0.2955177772999474
-0.5865079068448096
-0.5962810589592233
-0.83849535543269
0.1700424878579866
-0.5894414389833535
0.821223693580744
-0.003628691571115436
0.1198105366664285
0.4814513410772311
0.0966867160320065
0.1852181255851763
-0.03612052491363053
-0.1490975984772334
-0.02031354975951846
0.5929628678034282
-0.9446129462827936
0.4244766240169859
8.62214747220589e-05
0.0002523155377793907
-0.0003385326118678936
-0.6434442327238423
-0.1319225640444472
-0.4654078447023372
0.5991042210273501
-0.5037445095899321
-0.3157931986681858
-0.2550176141766528
-0.2719984970774198
-0.1119932918068227
0.1119932890169226
0.1530531697731091
0.05772491300681599
0.1964357874180843
0.4520838431207982
-0.5716704210204334
0.1062625742729619
0.2485892669294941
0.46612425494517
0.5338757450392015
0.6436184817710754
0.08044991063952939
0.002103609855911306
-0.08255351125361755
-0.2768688887130631
-0.5408895326525913
-0.5461840491455854
0.1141399126658978
-0.1261025422859519
0.01196262920507398
-0.1060271226496599
-0.3860160493716154
-0.04518701472696339
0.6545397025787139
-0.4990126668899912
-0.1444315657083485
-0.3344106304709149
0.2897738539603303
0.1242494116974325
-0.6029959266669653
-0.203953713450447
-0.2618054582143485
0.0005427434078170668
-0.421476729098393
0.3216802062674416
0.09979652362707869
-0.08917855525191677
0.2916220760044126
-0.8959203002300959
-0.4579541651081199
0.6342261523265262
-0.7729374346709341
0.6686015530388413
0.34259556178734
-0.1265296858792193
0.2257761893760055
-0.09924650331895032
0.02859286598950788
-0.5862017253348544
0.02922073888050161
0.5569809862760552
-0.9007215079405064
0.5468631241086532
-0.6653048433106791
-0.09611692945631853
0.1089335476968634
-0.1089335476814527
-0.3165425015834057
0.3633404337145554
0.01650256060845552
0.0229981338707395
0.05745177074576478
0.5047462311286075
0.664026512520935
-0.7410883424540963
0.02555967044324207
0.022435895581027
0.00193687442867917
-0.006462160722238086
0.006462158998709682
-0.4133045677252455
0.5365999216310662
0.01524264323703052
-0.01524264316354246
-0.7923604697173348
-0.05987146537259603
0.1215068119709144
-0.4513578027002029
0.5576203818320339
0.4494328177111088
-0.4979755240631834
0.1497527091231957
-0.149752705777168
0.04269019943582458
-0.007092938393608026
-0.04088826941625271
-0.9773606363899363
0.5420385957499131
-0.472700391467102
0.04094097394737856
0.5145841963233224
0.03084248653851956
-0.545426683165057
-0.6158960778868803
0.116883414290891
-0.3297953683482333
0.01350186655058317
0.3162935035903481
-0.1535958970486976
-0.07959906100708068
-0.5407525720146643
-0.04544914647980998
0.136094339208226
-0.04157053475642727
0.03872408028977611
0.08196128410270632
-0.08196128180884117
-0.5373259738492223
0.4835050333936458
-0.4144081137929562
0.1613259392542063
0.6221656350790307
-0.09793609952967271
-0.0063657316168218
0.006365728416787945
0.5329972341504791
-0.07184780072906269
0.006357232671780595
0.02716078534360622
0.03447880533106385
0.6884677755732517
-0.7603155767443279
-0.6628190254050864
0.6356450574395888
-0.1093599531911275
0.3128867645934915
0.7460218516888321
-0.01779439759027805
-0.2666652890100523
0.1480359314660406
-0.7446713944384415
0.4842432257410069
-0.4221042277713656
-0.1013118782647297
0.003583818186396516
-0.01467373409915448
0.02096935010328162
0.4122813742902409
-0.1217002813069459
-0.3897553858875114
0.6290356170215398
0.01888017212331088
0.009939470648379325
-0.009939468788611709
-0.3576555831859036
-0.08524211859942292
-0.5606395789683927
0.5570108871014596
-0.2382866001517958
0.464806705996281
-0.1507398883135779
0.7287030362569195
0.6726832691278278
-0.0415705388660447
-0.6151242738167001
0.5601085241059086
0.28632040242949
-0.2838831229851551
-0.002437272788817407
0.5464665075945664
0.0934064348947872
-0.03876903822587843
0.1972145946144646
-0.1584455559578329
0.1207303037680524
-0.1207303044759248
-0.8587316538395531
0.002440717292755065
-0.1129092883395417
0.1400700737691503
-0.1320045321077684
0.1320045286717064
0.02243589014262944
-0.02416012594494978
0.6713063443627555
0.05895228076503341
-0.3231826898029581
-0.06283335779194427
-0.4712667874044529
-0.04809024623570285
-0.1517963287187578
0.151796324822206
-0.03986331959150249
0.1432008749301238
-0.1432008709793826
0.1369392439303347
-0.1369392460027038
-0.3156530778458577
-0.1145071800668507
0.2266345421818184
0.1030566728772972
0.03485474639380957
-0.8211571288414715
-0.1972007075965432
0.1703414912757652
0.02070031946912524
-0.2654869575458453
0.1257361259672561
-0.1257361224793888
-0.4140766281149509
-0.08465375287465723
0.2365726405653892
0.002222070995130176
0.04039074123130572
-0.5435552687387244
0.5777056180832176
-0.02305260957931598
-0.01681070124527359
-0.02769708685524797
0.02060413860274517
0.006551833713021131
-0.1841841707087098
0.177632337768673
-0.1076207846546972
-0.2283712375115344
-0.1448615851621605
0.1448615811575805
0.07291847650846635
-0.07291847886749941
-0.01943793847745632
-0.1087062333621002
0.128144173185446
0.2400640997415077
-0.1827794664055442
-0.02253687153606769
0.02447372008666302
-0.1360132311767971
0.6195182619088822
-0.03907482601057421
0.42160714925377
-0.04119823040339945
0.06170500141086132
-0.1536274581350549
0.1536274545221599
-0.636084097106376
0.3089640667944309
-0.07922275096373402
-0.2347679236249514
0.00361501198013913
-0.1228088765876274
0.1631996181444141
0.1940000139398339
0.09775912476771843
0.0947131458689195
-0.06023434246596569
0.07258240881832964
0.04155750422176525
0.06385732826690887
0.1064841617228144
-0.096537283199507
0.2062489354491928
0.01278591888838121
-0.1122259647115316
-0.1026771883021576
0.09781061785032469
0.004866574240613641
0.01249640511212069
-0.02231805295614207
0.03780481277244167
-0.03780481319148164
0.07440571803175353
-0.05479492815755285
0.05479492776686572
-0.2245537816137753
-0.05052095362152512
0.01155431250376988
-0.103160823410967
0.01620893198656793
0.1083150633371896
-0.1083150612674773
0.2937965304606213
-0.2715016725701669
0.1638808874170626
-0.05039107466999444
-0.2211105975309339
-0.01749618874972998
0.0174961898884948
0.3672578555986851
0.2852638609769047
-0.5273750007309381
-0.09398656099359497
-0.03211597865315468
0.5285837993080219
0.212367014746778
-0.1689061702260862
-0.3821794028872405
0.07655229907761704
-0.1478294985979434
0.187421371467669
-0.03959187416326444
-0.06675755833296336
0.06675756007561229
0.822574150789207
-0.5605947089730143
-0.002190797020163357
0.01468720820173684
-0.02001123600756679
-0.2866207389729105
-0.01746475095331531
-0.01285706859865542
-0.1317535701924715
-0.5720221508803881
0.5559205367653752
-0.5688570636289324
-0.006934742572062499
0.1011286961492102
-0.001831146852845147
0.01668821786258919
-0.1678407341656616
-0.3366833864630193
0.2335225636944216
-0.05455160382331508
0.0351136686619065
0.1318318746467665
0.1729782602190675
0.3367276716887191
0.2767918018374761
-0.2786229469991363
-0.06395311293242792
-0.1547888636384664
-0.2212660530853416
0.07486023781094796
-0.01100291149819623
0.2142572538790171
-0.1975690354644344
-0.08624414563112386
0.1588265526186223
-0.3548306906216452
0.2088366370356946
-0.1926277059447279
0.08966012580803233
-0.4794155118475553
0.1745643013598645
0.169858778410185
-0.2561029225079039
0.07239509596932851
-0.1942409827395159
0.1767762315354195
0.01742107047330173
0.1414054835128089
-0.03955227639118299
0.06633231512194006
0.4666649188819323
0.0203086277415004
-0.07581629932802512
0.0568700166070433
0.1253963385573538
-0.2608579271303338
-0.2309060668526334
0.5596980556189396
0.1578012532872105
0.07877138706197623
0.075834523393773
-0.03097545244949199
-0.004045750120404809
0.001608468403284943
-0.03273883309012191
0.1712445681470558
-0.1781793100510924
-0.0548469475762729
0.02228291344439221
-0.1466568843878824
-0.05283550381301533
0.1514019955347768
0.2770940092259532
-0.03958384247765009
0.01655839999846737
-0.2555482019841818
-0.1301200166595513
0.2356149725893299
0.1792972610449061
0.1296668066672225
0.02162955286948016
0.08906934522263779
0.0519794426451673
0.4527667885876825
0.01765249597785019
0.09702131002712268
0.04374174844586459
0.07166825421467127
-0.1154100050130044
-0.2421111376628045
-0.20092681899358
-0.020183774569041
-0.2023215000988766
0.2757319813940092
)
;

boundaryField
{
    FrontBack
    {
        type            empty;
    }
    Top
    {
        type            calculated;
        value           uniform 0;
    }
    In
    {
        type            calculated;
        value           uniform -1;
    }
    Bottom
    {
        type            calculated;
        value           uniform 0;
    }
    Out
    {
        type            calculated;
        value           nonuniform List<scalar> 10(1.036415747444278 1.064541935758738 1.02152319431789 1.019782932629082 0.9975276519553832 1.013856841912631 1.034386432118273 1.062697278824173 0.8672423347089742 0.8820256840714982);
    }
    circle
    {
        type            calculated;
        value           uniform 0;
    }
}


// ************************************************************************* //
