/*--------------------------------*- C++ -*----------------------------------*\
| =========                 |                                                 |
| \\      /  F ield         | OpenFOAM: The Open Source CFD Toolbox           |
|  \\    /   O peration     | Version:  2412                                  |
|   \\  /    A nd           | Website:  www.openfoam.com                      |
|    \\/     M anipulation  |                                                 |
\*---------------------------------------------------------------------------*/
FoamFile
{
    version     2.0;
    format      ascii;
    arch        "LSB;label=32;scalar=64";
    class       volScalarField;
    location    "1958";
    object      yPlus;
}
// * * * * * * * * * * * * * * * * * * * * * * * * * * * * * * * * * * * * * //

dimensions      [0 0 0 0 0 0 0];

internalField   uniform 0;

boundaryField
{
    FrontBack
    {
        type            empty;
    }
    Top
    {
        type            calculated;
        value           nonuniform List<scalar> 
15
(
142.2803193236475
133.5821567937682
138.0704395966493
144.4106028196641
159.7730384737152
131.3688574764412
140.1335569356512
135.3627323660207
153.4417615076731
135.7409077433914
136.0973952713213
136.7691782006905
125.2558617910353
132.907512542445
123.9487787876095
)
;
    }
    In
    {
        type            calculated;
        value           uniform 0;
    }
    Bottom
    {
        type            calculated;
        value           nonuniform List<scalar> 
15
(
155.5653036343064
158.1159680979919
141.0835771542648
142.0532927091138
141.1787935409844
148.430711738083
142.699365752033
143.1571903423536
143.4235281869407
134.0544817537834
125.7281756202987
141.5513569022157
122.4088674639453
123.4901845064185
124.1341412752302
)
;
    }
    Out
    {
        type            calculated;
        value           uniform 0;
    }
    circle
    {
        type            calculated;
        value           nonuniform List<scalar> 
32
(
56.32696253297647
22.25233620837506
65.33413794729567
23.44524530978978
19.10429291259235
56.14182680282779
56.80178569640712
24.0602869175195
22.40012450677239
65.55952397533247
40.13420992161927
63.05477319228418
50.32508889267217
13.89752920986729
23.76313393115004
18.43639862821694
38.92728186543171
59.59446984421699
60.98067290124854
24.40680147128938
65.69949691506102
63.84491339006593
62.94267631410138
59.95097016221952
64.07533406749469
45.91371882274283
66.34457500196466
32.01521205188753
38.05571005721316
55.78584199321563
20.96244697874724
43.19067785868653
)
;
    }
}


// ************************************************************************* //
