/*--------------------------------*- C++ -*----------------------------------*\
| =========                 |                                                 |
| \\      /  F ield         | OpenFOAM: The Open Source CFD Toolbox           |
|  \\    /   O peration     | Version:  2412                                  |
|   \\  /    A nd           | Website:  www.openfoam.com                      |
|    \\/     M anipulation  |                                                 |
\*---------------------------------------------------------------------------*/
FoamFile
{
    version     2.0;
    format      ascii;
    arch        "LSB;label=32;scalar=64";
    class       volVectorField;
    location    "0.5";
    object      cellDisplacement;
}
// * * * * * * * * * * * * * * * * * * * * * * * * * * * * * * * * * * * * * //

dimensions      [0 1 0 0 0 0 0];

internalField   nonuniform List<vector> 
256
(
(0.0158299 -0.000541539 0)
(0.0155521 0.00186323 0)
(0.0143127 0.00388272 0)
(0.0122622 0.00513242 0)
(0.00980969 0.00547495 0)
(0.00721229 0.00492981 0)
(0.00468869 0.00368252 0)
(0.00224104 0.00190957 0)
(0.0468922 -0.00106255 0)
(0.0461205 0.00567675 0)
(0.0426927 0.0113343 0)
(0.0374156 0.015109 0)
(0.0308837 0.0165283 0)
(0.023866 0.0156405 0)
(0.0168055 0.0127185 0)
(0.00995774 0.00826373 0)
(0.0762943 -0.00101838 0)
(0.0749202 0.00947707 0)
(0.0698996 0.0183919 0)
(0.0620029 0.0245206 0)
(0.0523089 0.0272948 0)
(0.0417423 0.0266583 0)
(0.0310741 0.0230162 0)
(0.0205025 0.0168153 0)
(0.104227 -0.000433868 0)
(0.102329 0.0133914 0)
(0.0958806 0.025158 0)
(0.086056 0.0335749 0)
(0.0739277 0.0378915 0)
(0.0606661 0.0380507 0)
(0.0470609 0.0343427 0)
(0.0335132 0.0273132 0)
(0.130874 0.000692955 0)
(0.128344 0.0174519 0)
(0.120888 0.0318526 0)
(0.10952 0.0424249 0)
(0.0955921 0.0484444 0)
(0.0802582 0.0497414 0)
(0.0645058 0.0466561 0)
(0.0486476 0.0395976 0)
(0.156364 0.00239388 0)
(0.153265 0.0218136 0)
(0.144869 0.0385581 0)
(0.132425 0.0512584 0)
(0.117176 0.059076 0)
(0.100403 0.0618754 0)
(0.0830136 0.0598399 0)
(0.065473 0.0534559 0)
(0.180758 0.0047261 0)
(0.177045 0.0265076 0)
(0.168017 0.0454967 0)
(0.154731 0.060216 0)
(0.138589 0.0699415 0)
(0.120776 0.0744308 0)
(0.102334 0.0739316 0)
(0.0836405 0.0688282 0)
(0.204134 0.0077683 0)
(0.199907 0.0317412 0)
(0.190263 0.0527392 0)
(0.176444 0.0694815 0)
(0.159699 0.0811601 0)
(0.141279 0.0876071 0)
(0.122119 0.088915 0)
(0.102689 0.0855697 0)
(0.226595 0.0116377 0)
(0.221774 0.0375561 0)
(0.211729 0.0605292 0)
(0.197512 0.0792054 0)
(0.18043 0.0929309 0)
(0.161616 0.101433 0)
(0.142089 0.10489 0)
(0.122276 0.103742 0)
(0.248115 0.0164599 0)
(0.242776 0.0442219 0)
(0.232323 0.0689655 0)
(0.217882 0.0895928 0)
(0.200609 0.105381 0)
(0.181638 0.116162 0)
(0.161945 0.121971 0)
(0.141935 0.123353 0)
(0.268737 0.0224787 0)
(0.262792 0.0518399 0)
(0.252045 0.0783433 0)
(0.237464 0.100837 0)
(0.2201 0.118805 0)
(0.201093 0.131943 0)
(0.1813 0.140392 0)
(0.161259 0.144588 0)
(0.288334 0.0299218 0)
(0.281824 0.060781 0)
(0.270784 0.08885 0)
(0.256072 0.113268 0)
(0.238726 0.133418 0)
(0.219624 0.149143 0)
(0.199785 0.160363 0)
(0.179548 0.167692 0)
(0.306721 0.0391804 0)
(0.299566 0.0712568 0)
(0.288196 0.100822 0)
(0.273414 0.127077 0)
(0.255989 0.149564 0)
(0.236838 0.167956 0)
(0.21666 0.182312 0)
(0.196058 0.192935 0)
(0.323324 0.0505791 0)
(0.315432 0.0835977 0)
(0.303701 0.114476 0)
(0.288718 0.14257 0)
(0.271139 0.167431 0)
(0.251661 0.18876 0)
(0.230971 0.206448 0)
(0.20948 0.220758 0)
(0.337183 0.0643651 0)
(0.32848 0.0979964 0)
(0.316277 0.129953 0)
(0.300927 0.15977 0)
(0.282902 0.187022 0)
(0.262653 0.211443 0)
(0.24076 0.2328 0)
(0.217526 0.251185 0)
(0.345447 0.0799882 0)
(0.335943 0.113463 0)
(0.323204 0.145844 0)
(0.307352 0.176822 0)
(0.288541 0.206096 0)
(0.266951 0.233386 0)
(0.242789 0.258428 0)
(0.21629 0.280981 0)
(0.00226931 0.00183931 0)
(0.0041779 0.00359575 0)
(0.00555028 0.0053791 0)
(0.00639253 0.00735616 0)
(0.00659999 0.009484 0)
(0.00609348 0.0116491 0)
(0.00482565 0.0135723 0)
(0.00290832 0.0150736 0)
(0.00991406 0.00821651 0)
(0.0146949 0.0131793 0)
(0.0180139 0.0184441 0)
(0.0196654 0.0240395 0)
(0.0195711 0.0300252 0)
(0.0175104 0.0359125 0)
(0.0134941 0.0411807 0)
(0.00780873 0.0450572 0)
(0.0200923 0.016902 0)
(0.0268404 0.0248483 0)
(0.031106 0.0331474 0)
(0.0328535 0.0420805 0)
(0.0318222 0.0513821 0)
(0.0278216 0.0604146 0)
(0.0209262 0.0682046 0)
(0.0116802 0.0737953 0)
(0.0325748 0.027847 0)
(0.0402352 0.038341 0)
(0.0446995 0.0494897 0)
(0.0457862 0.0612708 0)
(0.0432886 0.0733771 0)
(0.0370295 0.0848863 0)
(0.0272211 0.094683 0)
(0.0146181 0.101436 0)
(0.0469095 0.0407746 0)
(0.0546811 0.0536485 0)
(0.0584963 0.0671971 0)
(0.0583442 0.0815068 0)
(0.0539269 0.0959114 0)
(0.045169 0.10939 0)
(0.0324286 0.120519 0)
(0.0166725 0.127994 0)
(0.0628181 0.0556434 0)
(0.0697867 0.0705008 0)
(0.0723378 0.0862687 0)
(0.0703649 0.102617 0)
(0.0636564 0.118848 0)
(0.0522247 0.133701 0)
(0.0365734 0.145773 0)
(0.0178498 0.153585 0)
(0.0798249 0.0722033 0)
(0.0853289 0.088926 0)
(0.0859434 0.106461 0)
(0.081707 0.124527 0)
(0.0723986 0.142104 0)
(0.0581583 0.157921 0)
(0.0396472 0.1704 0)
(0.018141 0.178237 0)
(0.0976103 0.0904682 0)
(0.100916 0.108685 0)
(0.0991138 0.127809 0)
(0.0921843 0.147125 0)
(0.0800311 0.165624 0)
(0.0629138 0.181884 0)
(0.0415936 0.194478 0)
(0.0174852 0.202081 0)
(0.115689 0.110274 0)
(0.116274 0.129879 0)
(0.111537 0.150143 0)
(0.101591 0.170375 0)
(0.086399 0.189352 0)
(0.0663401 0.205719 0)
(0.0423277 0.21803 0)
(0.0157837 0.225144 0)
(0.133714 0.131754 0)
(0.130961 0.152399 0)
(0.122915 0.173567 0)
(0.109638 0.19426 0)
(0.0912647 0.213324 0)
(0.068291 0.229344 0)
(0.0416774 0.241077 0)
(0.012912 0.247401 0)
(0.151121 0.154955 0)
(0.144595 0.176445 0)
(0.132787 0.198096 0)
(0.115977 0.21886 0)
(0.0943052 0.237511 0)
(0.0684568 0.252805 0)
(0.0394279 0.263514 0)
(0.00863186 0.268852 0)
(0.16726 0.180068 0)
(0.156439 0.202128 0)
(0.140583 0.22386 0)
(0.119994 0.244183 0)
(0.0950544 0.261904 0)
(0.0664532 0.275912 0)
(0.0352227 0.285282 0)
(0.00268101 0.289404 0)
(0.181071 0.207387 0)
(0.16556 0.22961 0)
(0.145322 0.250898 0)
(0.120912 0.270122 0)
(0.0927887 0.286293 0)
(0.0616805 0.298561 0)
(0.0285993 0.306236 0)
(-0.00543071 0.308917 0)
(0.191195 0.237225 0)
(0.17048 0.259047 0)
(0.145729 0.279106 0)
(0.117599 0.296447 0)
(0.0865667 0.310376 0)
(0.0533909 0.320319 0)
(0.0188701 0.325871 0)
(-0.0160564 0.326847 0)
(0.195005 0.269511 0)
(0.168814 0.289912 0)
(0.139811 0.307552 0)
(0.1085 0.321976 0)
(0.0753488 0.332855 0)
(0.0408775 0.339921 0)
(0.00569359 0.343012 0)
(-0.0295946 0.342067 0)
(0.187707 0.300828 0)
(0.157317 0.317778 0)
(0.125412 0.331667 0)
(0.0922991 0.342363 0)
(0.0582973 0.349761 0)
(0.023734 0.353791 0)
(-0.0110579 0.354414 0)
(-0.0457433 0.351623 0)
)
;

boundaryField
{
    walls
    {
        type            cellMotion;
        value           uniform (0 0 0);
    }
    cylinder
    {
        type            cellMotion;
        value           nonuniform List<vector> 
16
(
(0.345447 0.0799882 0)
(0.335943 0.113463 0)
(0.323204 0.145844 0)
(0.307352 0.176822 0)
(0.288541 0.206096 0)
(0.266951 0.233386 0)
(0.242789 0.258428 0)
(0.21629 0.280981 0)
(0.187707 0.300828 0)
(0.157317 0.317778 0)
(0.125412 0.331667 0)
(0.0922991 0.342363 0)
(0.0582973 0.349761 0)
(0.023734 0.353791 0)
(-0.0110579 0.354414 0)
(-0.0457433 0.351623 0)
)
;
    }
    outlet
    {
        type            cellMotion;
        value           uniform (0 0 0);
    }
    inlet
    {
        type            cellMotion;
        value           nonuniform List<vector> 0();
    }
    frontAndBack
    {
        type            empty;
    }
    procBoundary1to0
    {
        type            processor;
        value           nonuniform List<vector> 
16
(
(0.0150929 -0.00290901 0)
(0.0451156 -0.00780507 0)
(0.0738917 -0.0116655 0)
(0.101573 -0.0145881 0)
(0.128161 -0.0166255 0)
(0.15379 -0.0177848 0)
(0.178468 -0.0180554 0)
(0.202343 -0.0173767 0)
(0.225413 -0.0156641 0)
(0.24768 -0.0127745 0)
(0.269111 -0.00850152 0)
(0.28964 -0.00255164 0)
(0.309096 0.00551696 0)
(0.32695 0.0161187 0)
(0.342102 0.0296157 0)
(0.351623 0.0457433 0)
)
;
    }
    procBoundary1to3
    {
        type            processor;
        value           nonuniform List<vector> 
16
(
(0.000549355 0.0158017 0)
(0.0010851 0.0468562 0)
(0.00107305 0.0761949 0)
(0.000508381 0.104111 0)
(-0.000578951 0.130689 0)
(-0.00226255 0.156168 0)
(-0.00455704 0.180505 0)
(-0.00759685 0.203883 0)
(-0.0114307 0.226302 0)
(-0.0162822 0.247856 0)
(-0.0222872 0.268476 0)
(-0.0297875 0.28812 0)
(-0.0390532 0.306568 0)
(-0.0505307 0.323232 0)
(-0.0643469 0.337155 0)
(-0.0799882 0.345447 0)
)
;
    }
}


// ************************************************************************* //
