/*--------------------------------*- C++ -*----------------------------------*\
| =========                 |                                                 |
| \\      /  F ield         | OpenFOAM: The Open Source CFD Toolbox           |
|  \\    /   O peration     | Version:  2412                                  |
|   \\  /    A nd           | Website:  www.openfoam.com                      |
|    \\/     M anipulation  |                                                 |
\*---------------------------------------------------------------------------*/
FoamFile
{
    version     2.0;
    format      ascii;
    arch        "LSB;label=32;scalar=64";
    class       surfaceScalarField;
    location    "0.5";
    object      meshPhi;
}
// * * * * * * * * * * * * * * * * * * * * * * * * * * * * * * * * * * * * * //

dimensions      [0 3 -1 0 0 0 0];

internalField   nonuniform List<scalar> 
480
(
0.00310526
-0.00294377
0.00307606
-0.000508509
0.00305479
0.00204003
0.00303479
0.00415123
0.00279312
0.00529157
0.00225577
0.005303
0.00152153
0.00450551
0.00368931
0.00115619
0.00917459
-0.0052231
0.00906605
-0.000835003
0.00905469
0.00375548
0.00904414
0.0075543
0.00838426
0.00965217
0.00695189
0.0098965
0.0049959
0.00882047
0.00756242
0.00402107
0.0148711
-0.00686472
0.0148108
-0.000923341
0.0148908
0.00518676
0.0148918
0.0101974
0.0139784
0.0130906
0.0120162
0.0137783
0.00929452
0.0127736
0.0113733
0.00797097
0.0201475
-0.00794737
0.0203442
-0.000812025
0.0205389
0.00636376
0.0205373
0.0122154
0.0195389
0.0157392
0.0173892
0.0169257
0.0143123
0.0162372
0.0149843
0.0129355
0.0252341
-0.00863415
0.0256754
-0.000593759
0.0259797
0.00726129
0.026007
0.0136244
0.025081
0.0176483
0.0230406
0.0193672
0.0199982
0.0191386
0.0182055
0.0188371
0.0303364
-0.00896995
0.0308272
-0.00037457
0.0312237
0.00789632
0.0313436
0.0145505
0.0306607
0.0189203
0.028993
0.0211013
0.0263152
0.0213748
0.0208178
0.0255605
0.0353432
-0.008848
0.0358222
-4.09109e-05
0.0363231
0.00830868
0.0366348
0.0150117
0.036364
0.0195819
0.0352642
0.022134
0.0330944
0.0227758
0.0224714
0.0328149
0.0401908
-0.00838223
0.0406966
0.000348182
0.0413615
0.00850321
0.0419969
0.0150529
0.0422491
0.0196368
0.041713
0.022323
0.0400611
0.0231753
0.0231549
0.0403659
0.0449297
-0.00763796
0.0454968
0.000805793
0.0464337
0.00850228
0.0474649
0.014609
0.0481654
0.0189516
0.048148
0.0216403
0.0471585
0.0227299
0.0230342
0.048215
0.0495752
-0.00667364
0.0501903
0.00115572
0.051454
0.00804131
0.052864
0.0134536
0.054048
0.01754
0.0547131
0.0203287
0.0546443
0.0217067
0.0223967
0.0567687
0.0541633
-0.00572136
0.0548011
0.00117759
0.0563082
0.00715414
0.058184
0.011976
0.0600935
0.015791
0.0617364
0.0185353
0.0630625
0.0201414
0.0211641
0.0665921
0.0588701
-0.00473941
0.0596676
0.00104369
0.061451
0.00614106
0.063914
0.0103561
0.0666771
0.0137476
0.0695777
0.0162908
0.0726672
0.0179625
0.0191013
0.0776643
0.0637624
-0.00318318
0.0649413
0.00129709
0.0672534
0.00530574
0.0704254
0.00865946
0.0741464
0.0114334
0.0783828
0.0136357
0.0830772
0.0152275
0.0163602
0.0894047
0.0686015
-0.000982776
0.0703086
0.00198764
0.073274
0.0046698
0.0772934
0.00700005
0.0821258
0.00897787
0.0877003
0.0106099
0.0938171
0.0118375
0.0128037
0.101236
0.072849
0.00127619
0.0750248
0.00265392
0.0785791
0.00394298
0.0834097
0.00509854
0.0893182
0.00611253
0.0961722
0.00698659
0.103709
0.007684
0.00828057
0.112151
0.072085
0.0748397
0.078945
0.0842531
0.0905807
0.0977258
0.105431
0.113524
0.00144101
-0.00297828
0.00194325
-0.00468804
0.00233768
-0.00641948
0.00274323
-0.00759829
0.00307497
-0.00835286
0.00310492
-0.00821843
0.00314392
-0.00696207
-0.00479264
0.0047251
-0.00717451
0.00613583
-0.00992515
0.0071759
-0.0127027
0.00826062
-0.0144339
0.00913189
-0.0153582
0.00929985
-0.0148681
0.00944065
-0.0125705
-0.0086305
0.0089146
-0.0122534
0.0109211
-0.0155404
0.0124047
-0.0187833
0.0138582
-0.0206344
0.0150043
-0.0212845
0.0153479
-0.0202019
0.0155943
-0.0169024
-0.0115079
0.0139491
-0.0176172
0.0162983
-0.0210707
0.0180165
-0.0243692
0.0195423
-0.0259073
0.0207214
-0.0259611
0.0211766
-0.024147
0.0214974
-0.0199927
-0.0135138
0.0197434
-0.0230105
0.0222042
-0.0263129
0.0239285
-0.0292586
0.0253192
-0.0302726
0.0263528
-0.029611
0.0267966
-0.0270023
0.027168
-0.0220356
-0.014731
0.0261775
-0.0279565
0.0285313
-0.0308522
0.0300644
-0.0332228
0.0311581
-0.0335089
0.0319051
-0.0320265
0.0322032
-0.0286135
0.0325345
-0.0229469
-0.0151263
0.0330125
-0.031987
0.0351225
-0.0343955
0.0363452
-0.0360729
0.0370348
-0.0356147
0.0373916
-0.0333495
0.0374335
-0.0292345
0.0375315
-0.0229878
-0.0148086
0.0400673
-0.0348074
0.0418188
-0.0366709
0.0426958
-0.0376723
0.0429207
-0.0365102
0.0428255
-0.0335186
0.0425532
-0.0288376
0.0423636
-0.0222624
-0.0140146
0.0473785
-0.0363423
0.0486719
-0.037707
0.0490869
-0.0380179
0.04879
-0.0361751
0.0482314
-0.0325374
0.0476313
-0.0274829
0.0472172
-0.0208733
-0.0128691
0.0553215
-0.0367331
0.0558584
-0.0374706
0.0556242
-0.0370225
0.054698
-0.034594
0.0536357
-0.030523
0.0526757
-0.0253249
0.0519931
-0.0189226
-0.0114203
0.0642242
-0.0359474
0.0635173
-0.0359793
0.062292
-0.0346114
0.0606233
-0.0316426
0.0589751
-0.0274288
0.0575982
-0.0223425
0.0565756
-0.0164166
-0.00973581
0.0741203
-0.0333986
0.0717786
-0.0328693
0.0692214
-0.0306999
0.0666518
-0.0273679
0.0642755
-0.0232466
0.0623757
-0.0185495
0.0610007
-0.0133582
-0.00773023
0.0845913
-0.0281352
0.0805252
-0.0273361
0.0765198
-0.0248693
0.0728437
-0.0216888
0.0695864
-0.0180433
0.0670753
-0.0139992
0.0653708
-0.00972407
-0.00532125
0.0950248
-0.0198994
0.0892804
-0.0190371
0.0837867
-0.0168188
0.0789239
-0.0142786
0.0747867
-0.0115693
0.0716289
-0.00864637
0.0696228
-0.00563064
-0.00263355
0.104433
-0.0089144
0.096925
-0.00812704
0.0899835
-0.0068308
0.0840206
-0.00545722
0.0791463
-0.00406528
0.075496
-0.00263769
0.073269
-0.00119015
0.000236747
0.104092
0.0953174
0.0876428
0.0812989
0.0763883
0.0729816
0.0711469
)
;

boundaryField
{
    walls
    {
        type            calculated;
        value           uniform 0;
    }
    cylinder
    {
        type            calculated;
        value           nonuniform List<scalar> 
16
(
1.60363e-11
-1.96897e-11
-6.53098e-12
1.18837e-11
-3.34639e-11
2.42432e-11
3.75408e-11
-1.90042e-11
1.90047e-11
-3.75398e-11
-2.42425e-11
3.34647e-11
-1.1882e-11
6.53197e-12
1.96897e-11
-1.60353e-11
)
;
    }
    outlet
    {
        type            calculated;
        value           uniform 0;
    }
    inlet
    {
        type            calculated;
        value           nonuniform List<scalar> 0();
    }
    frontAndBack
    {
        type            empty;
    }
    procBoundary1to0
    {
        type            processor;
        value           nonuniform List<scalar> 
16
(
-0.00295826
-0.00883301
-0.0144575
-0.0197222
-0.0248689
-0.0300273
-0.0349958
-0.0398405
-0.0447362
-0.0495979
-0.0543559
-0.0590536
-0.0637416
-0.0682941
-0.0722183
-0.0708151
)
;
    }
    procBoundary1to3
    {
        type            processor;
        value           nonuniform List<scalar> 
16
(
0.00343295
0.0102088
0.016581
0.0223924
0.0278793
0.0331784
0.0381123
0.0427754
0.0473731
0.0518505
0.05614
0.0603667
0.064656
0.0688687
0.0725196
0.070899
)
;
    }
}


// ************************************************************************* //
