/*--------------------------------*- C++ -*----------------------------------*\
| =========                 |                                                 |
| \\      /  F ield         | OpenFOAM: The Open Source CFD Toolbox           |
|  \\    /   O peration     | Version:  2412                                  |
|   \\  /    A nd           | Website:  www.openfoam.com                      |
|    \\/     M anipulation  |                                                 |
\*---------------------------------------------------------------------------*/
FoamFile
{
    version     2.0;
    format      ascii;
    arch        "LSB;label=32;scalar=64";
    class       pointVectorField;
    location    "0.5";
    object      pointDisplacement;
}
// * * * * * * * * * * * * * * * * * * * * * * * * * * * * * * * * * * * * * //

dimensions      [0 1 0 0 0 0 0];

internalField   nonuniform List<vector> 
578
(
(0 0 0)
(0 0 0)
(0 0 0)
(0 0 0)
(0 0 0)
(0 0 0)
(0 0 0)
(0 0 0)
(0 0 0)
(0.0307692 -0.00309424 0)
(0.0311435 0.00148061 0)
(0.0297161 0.0056983 0)
(0.0267119 0.00888332 0)
(0.022622 0.0105834 0)
(0.0179574 0.010662 0)
(0.0131417 0.00925095 0)
(0.00840755 0.00663721 0)
(0.00594248 0.0049304 0)
(0.0605834 -0.00539926 0)
(0.0610974 0.00326641 0)
(0.0584502 0.011228 0)
(0.0530414 0.0173548 0)
(0.0456844 0.0208835 0)
(0.037222 0.0215508 0)
(0.0283832 0.0195246 0)
(0.0195859 0.0152113 0)
(0.0149224 0.0123874 0)
(0.0890299 -0.00693445 0)
(0.0894794 0.00535403 0)
(0.0857949 0.016612 0)
(0.0784958 0.025425 0)
(0.0686063 0.0308388 0)
(0.0571883 0.0324949 0)
(0.0451554 0.0305375 0)
(0.0330532 0.0253908 0)
(0.026447 0.0220298 0)
(0.11624 -0.00774327 0)
(0.116477 0.00777739 0)
(0.111894 0.0219707 0)
(0.103119 0.0332646 0)
(0.0913061 0.0406004 0)
(0.0776407 0.0435524 0)
(0.0631491 0.0422212 0)
(0.0484584 0.0370036 0)
(0.0401711 0.0336744 0)
(0.142327 -0.00783248 0)
(0.142241 0.0105914 0)
(0.136871 0.0274261 0)
(0.126956 0.0410341 0)
(0.113709 0.0503156 0)
(0.0983886 0.0548039 0)
(0.0820749 0.0545522 0)
(0.0654441 0.0499175 0)
(0.055716 0.0471461 0)
(0.167372 -0.0071791 0)
(0.166885 0.0138649 0)
(0.160825 0.0331009 0)
(0.150038 0.0488916 0)
(0.13576 0.060136 0)
(0.119267 0.0663488 0)
(0.101664 0.0675433 0)
(0.0836538 0.0640452 0)
(0.0726976 0.0623042 0)
(0.191451 -0.00573125 0)
(0.190485 0.0176913 0)
(0.183831 0.0391278 0)
(0.172389 0.0569915 0)
(0.157393 0.070211 0)
(0.140116 0.0783011 0)
(0.121659 0.0812433 0)
(0.102736 0.0793412 0)
(0.0907127 0.0790368 0)
(0.214644 -0.00340372 0)
(0.213123 0.0221819 0)
(0.205939 0.0456476 0)
(0.19401 0.0654958 0)
(0.178546 0.080704 0)
(0.160784 0.0907966 0)
(0.141807 0.0957313 0)
(0.122332 0.0958065 0)
(0.109358 0.0972857 0)
(0.236971 -7.88279e-05 0)
(0.234833 0.0274753 0)
(0.227168 0.0528239 0)
(0.214881 0.074579 0)
(0.199131 0.0917851 0)
(0.181099 0.103988 0)
(0.161851 0.111131 0)
(0.142098 0.113512 0)
(0.128221 0.117059 0)
(0.258429 0.00442318 0)
(0.255621 0.0337567 0)
(0.247499 0.0608477 0)
(0.234946 0.084439 0)
(0.219034 0.10366 0)
(0.200884 0.118082 0)
(0.18152 0.127631 0)
(0.161643 0.132594 0)
(0.146856 0.138451 0)
(0.278971 0.0103454 0)
(0.275435 0.0412619 0)
(0.266875 0.069958 0)
(0.254106 0.0953275 0)
(0.238108 0.116585 0)
(0.219906 0.133333 0)
(0.200474 0.14547 0)
(0.180502 0.153271 0)
(0.164681 0.161627 0)
(0.298461 0.0180268 0)
(0.294122 0.0502919 0)
(0.285104 0.0804313 0)
(0.272129 0.107506 0)
(0.256065 0.130833 0)
(0.237812 0.150023 0)
(0.218247 0.164948 0)
(0.198037 0.175831 0)
(0.180906 0.18684 0)
(0.316534 0.0278603 0)
(0.311269 0.0611608 0)
(0.301732 0.0925413 0)
(0.288517 0.121236 0)
(0.272327 0.146659 0)
(0.253922 0.168426 0)
(0.23405 0.186368 0)
(0.213313 0.200611 0)
(0.194412 0.214421 0)
(0.332398 0.0401839 0)
(0.326111 0.0741433 0)
(0.315978 0.106509 0)
(0.302413 0.136692 0)
(0.285931 0.164195 0)
(0.267101 0.188658 0)
(0.246527 0.209855 0)
(0.224704 0.227788 0)
(0.203299 0.244553 0)
(0.344095 0.0549503 0)
(0.336767 0.0889688 0)
(0.32598 0.121824 0)
(0.311945 0.153103 0)
(0.294938 0.18243 0)
(0.275272 0.209487 0)
(0.253302 0.234014 0)
(0.229359 0.255849 0)
(0.204146 0.275596 0)
(0.349376 0.0630174 0)
(0.341517 0.0969589 0)
(0.330369 0.129966 0)
(0.316039 0.161722 0)
(0.298666 0.191921 0)
(0.278416 0.220271 0)
(0.255485 0.2465 0)
(0.230094 0.270355 0)
(0.202486 0.291606 0)
(0 0 0)
(0 0 0)
(0 0 0)
(0 0 0)
(0 0 0)
(0 0 0)
(0 0 0)
(0 0 0)
(0 0 0)
(0.0307692 -0.00309424 0)
(0.0311435 0.00148061 0)
(0.0297161 0.0056983 0)
(0.0267119 0.00888332 0)
(0.022622 0.0105834 0)
(0.0179574 0.010662 0)
(0.0131417 0.00925095 0)
(0.00840755 0.00663721 0)
(0.00594248 0.0049304 0)
(0.0605834 -0.00539926 0)
(0.0610974 0.00326641 0)
(0.0584502 0.011228 0)
(0.0530414 0.0173548 0)
(0.0456844 0.0208835 0)
(0.037222 0.0215508 0)
(0.0283832 0.0195246 0)
(0.0195859 0.0152113 0)
(0.0149224 0.0123874 0)
(0.0890299 -0.00693445 0)
(0.0894794 0.00535403 0)
(0.0857949 0.016612 0)
(0.0784958 0.025425 0)
(0.0686063 0.0308388 0)
(0.0571883 0.0324949 0)
(0.0451554 0.0305375 0)
(0.0330532 0.0253908 0)
(0.026447 0.0220298 0)
(0.11624 -0.00774327 0)
(0.116477 0.00777739 0)
(0.111894 0.0219707 0)
(0.103119 0.0332646 0)
(0.0913061 0.0406004 0)
(0.0776407 0.0435524 0)
(0.0631491 0.0422212 0)
(0.0484584 0.0370036 0)
(0.0401711 0.0336744 0)
(0.142327 -0.00783248 0)
(0.142241 0.0105914 0)
(0.136871 0.0274261 0)
(0.126956 0.0410341 0)
(0.113709 0.0503156 0)
(0.0983886 0.0548039 0)
(0.0820749 0.0545522 0)
(0.0654441 0.0499175 0)
(0.055716 0.0471461 0)
(0.167372 -0.0071791 0)
(0.166885 0.0138649 0)
(0.160825 0.0331009 0)
(0.150038 0.0488916 0)
(0.13576 0.060136 0)
(0.119267 0.0663488 0)
(0.101664 0.0675433 0)
(0.0836538 0.0640452 0)
(0.0726976 0.0623042 0)
(0.191451 -0.00573125 0)
(0.190485 0.0176913 0)
(0.183831 0.0391278 0)
(0.172389 0.0569915 0)
(0.157393 0.070211 0)
(0.140116 0.0783011 0)
(0.121659 0.0812433 0)
(0.102736 0.0793412 0)
(0.0907127 0.0790368 0)
(0.214644 -0.00340372 0)
(0.213123 0.0221819 0)
(0.205939 0.0456476 0)
(0.19401 0.0654958 0)
(0.178546 0.080704 0)
(0.160784 0.0907966 0)
(0.141807 0.0957313 0)
(0.122332 0.0958065 0)
(0.109358 0.0972857 0)
(0.236971 -7.88279e-05 0)
(0.234833 0.0274753 0)
(0.227168 0.0528239 0)
(0.214881 0.074579 0)
(0.199131 0.0917851 0)
(0.181099 0.103988 0)
(0.161851 0.111131 0)
(0.142098 0.113512 0)
(0.128221 0.117059 0)
(0.258429 0.00442318 0)
(0.255621 0.0337567 0)
(0.247499 0.0608477 0)
(0.234946 0.084439 0)
(0.219034 0.10366 0)
(0.200884 0.118082 0)
(0.18152 0.127631 0)
(0.161643 0.132594 0)
(0.146856 0.138451 0)
(0.278971 0.0103454 0)
(0.275435 0.0412619 0)
(0.266875 0.069958 0)
(0.254106 0.0953275 0)
(0.238108 0.116585 0)
(0.219906 0.133333 0)
(0.200474 0.14547 0)
(0.180502 0.153271 0)
(0.164681 0.161627 0)
(0.298461 0.0180268 0)
(0.294122 0.0502919 0)
(0.285104 0.0804313 0)
(0.272129 0.107506 0)
(0.256065 0.130833 0)
(0.237812 0.150023 0)
(0.218247 0.164948 0)
(0.198037 0.175831 0)
(0.180906 0.18684 0)
(0.316534 0.0278603 0)
(0.311269 0.0611608 0)
(0.301732 0.0925413 0)
(0.288517 0.121236 0)
(0.272327 0.146659 0)
(0.253922 0.168426 0)
(0.23405 0.186368 0)
(0.213313 0.200611 0)
(0.194412 0.214421 0)
(0.332398 0.0401839 0)
(0.326111 0.0741433 0)
(0.315978 0.106509 0)
(0.302413 0.136692 0)
(0.285931 0.164195 0)
(0.267101 0.188658 0)
(0.246527 0.209855 0)
(0.224704 0.227788 0)
(0.203299 0.244553 0)
(0.344095 0.0549503 0)
(0.336767 0.0889688 0)
(0.32598 0.121824 0)
(0.311945 0.153103 0)
(0.294938 0.18243 0)
(0.275272 0.209487 0)
(0.253302 0.234014 0)
(0.229359 0.255849 0)
(0.204146 0.275596 0)
(0.349376 0.0630174 0)
(0.341517 0.0969589 0)
(0.330369 0.129966 0)
(0.316039 0.161722 0)
(0.298666 0.191921 0)
(0.278416 0.220271 0)
(0.255485 0.2465 0)
(0.230094 0.270355 0)
(0.202486 0.291606 0)
(0 0 0)
(0 0 0)
(0 0 0)
(0 0 0)
(0 0 0)
(0 0 0)
(0 0 0)
(0 0 0)
(0.00774929 0.00668815 0)
(0.0106071 0.0101343 0)
(0.0124144 0.0137949 0)
(0.0130736 0.0177214 0)
(0.0124656 0.0217708 0)
(0.0105048 0.0255913 0)
(0.00728096 0.0287458 0)
(0.00310251 0.0307336 0)
(0.017883 0.0157734 0)
(0.022672 0.0223973 0)
(0.0254239 0.0294231 0)
(0.0259974 0.0368827 0)
(0.0242034 0.0444412 0)
(0.0199602 0.051445 0)
(0.0134958 0.0570857 0)
(0.00542309 0.0605109 0)
(0.0299448 0.0269783 0)
(0.0357352 0.0364537 0)
(0.0386303 0.0464983 0)
(0.0384588 0.0570334 0)
(0.0350122 0.0675274 0)
(0.0282693 0.0770666 0)
(0.0186263 0.0845572 0)
(0.00697789 0.0889177 0)
(0.0436167 0.0401498 0)
(0.0495492 0.0521722 0)
(0.0518533 0.0648714 0)
(0.0503585 0.0780268 0)
(0.0448741 0.0909072 0)
(0.0354789 0.102392 0)
(0.0227463 0.111186 0)
(0.00780966 0.116089 0)
(0.0585725 0.0551433 0)
(0.06385 0.0694102 0)
(0.0649096 0.0844076 0)
(0.0615951 0.099735 0)
(0.053763 0.114482 0)
(0.0416127 0.12737 0)
(0.0258888 0.136995 0)
(0.00792192 0.142138 0)
(0.074467 0.0718217 0)
(0.0783765 0.0880505 0)
(0.0776126 0.104982 0)
(0.0720527 0.122042 0)
(0.0616259 0.138165 0)
(0.0466614 0.151974 0)
(0.0280573 0.162025 0)
(0.00729194 0.167151 0)
(0.0909508 0.0900776 0)
(0.0928533 0.107984 0)
(0.0897612 0.126498 0)
(0.0815995 0.144866 0)
(0.0683889 0.161907 0)
(0.0505854 0.176196 0)
(0.0292181 0.186325 0)
(0.00586509 0.191201 0)
(0.107654 0.109835 0)
(0.106988 0.129147 0)
(0.101129 0.148883 0)
(0.090068 0.168142 0)
(0.0739313 0.18567 0)
(0.0532976 0.200053 0)
(0.0292961 0.209958 0)
(0.00355547 0.214375 0)
(0.124191 0.131088 0)
(0.120447 0.151517 0)
(0.11144 0.172109 0)
(0.0972365 0.191853 0)
(0.0780802 0.209461 0)
(0.0546595 0.223568 0)
(0.028171 0.232936 0)
(0.000239486 0.236696 0)
(0.140127 0.153902 0)
(0.132838 0.17515 0)
(0.120345 0.196221 0)
(0.102806 0.216016 0)
(0.0805818 0.233273 0)
(0.05446 0.24671 0)
(0.0256557 0.255232 0)
(-0.00426384 0.258164 0)
(0.15488 0.178415 0)
(0.14362 0.200158 0)
(0.127347 0.221278 0)
(0.106337 0.240643 0)
(0.081065 0.25706 0)
(0.0523831 0.269402 0)
(0.0214819 0.276782 0)
(-0.0101989 0.278728 0)
(0.167603 0.204817 0)
(0.151989 0.226652 0)
(0.131708 0.247296 0)
(0.107185 0.265655 0)
(0.0789863 0.280694 0)
(0.0479777 0.29152 0)
(0.0152566 0.297477 0)
(-0.0179075 0.298265 0)
(0.17709 0.23334 0)
(0.156777 0.254697 0)
(0.132387 0.274176 0)
(0.104456 0.29084 0)
(0.073592 0.303913 0)
(0.0406192 0.312767 0)
(0.00648062 0.316983 0)
(-0.0277792 0.316402 0)
(0.181375 0.263954 0)
(0.156199 0.283942 0)
(0.127893 0.301306 0)
(0.0969815 0.315445 0)
(0.0640221 0.325892 0)
(0.0296853 0.332298 0)
(-0.00529095 0.334461 0)
(-0.0401464 0.332333 0)
(0.17718 0.294569 0)
(0.147798 0.311784 0)
(0.116461 0.325935 0)
(0.0835674 0.336773 0)
(0.0495235 0.344107 0)
(0.0147761 0.347801 0)
(-0.0202047 0.347789 0)
(-0.0549406 0.344079 0)
(0.172929 0.310049 0)
(0.141706 0.325506 0)
(0.109118 0.337828 0)
(0.0754799 0.346897 0)
(0.0411146 0.352625 0)
(0.00635332 0.354957 0)
(-0.0284692 0.353871 0)
(-0.0630174 0.349376 0)
(0 0 0)
(0 0 0)
(0 0 0)
(0 0 0)
(0 0 0)
(0 0 0)
(0 0 0)
(0 0 0)
(0.00774929 0.00668815 0)
(0.0106071 0.0101343 0)
(0.0124144 0.0137949 0)
(0.0130736 0.0177214 0)
(0.0124656 0.0217708 0)
(0.0105048 0.0255913 0)
(0.00728096 0.0287458 0)
(0.00310251 0.0307336 0)
(0.017883 0.0157734 0)
(0.022672 0.0223973 0)
(0.0254239 0.0294231 0)
(0.0259974 0.0368827 0)
(0.0242034 0.0444412 0)
(0.0199602 0.051445 0)
(0.0134958 0.0570857 0)
(0.00542309 0.0605109 0)
(0.0299448 0.0269783 0)
(0.0357352 0.0364537 0)
(0.0386303 0.0464983 0)
(0.0384588 0.0570334 0)
(0.0350122 0.0675274 0)
(0.0282693 0.0770666 0)
(0.0186263 0.0845572 0)
(0.00697789 0.0889177 0)
(0.0436167 0.0401498 0)
(0.0495492 0.0521722 0)
(0.0518533 0.0648714 0)
(0.0503585 0.0780268 0)
(0.0448741 0.0909072 0)
(0.0354789 0.102392 0)
(0.0227463 0.111186 0)
(0.00780966 0.116089 0)
(0.0585725 0.0551433 0)
(0.06385 0.0694102 0)
(0.0649096 0.0844076 0)
(0.0615951 0.099735 0)
(0.053763 0.114482 0)
(0.0416127 0.12737 0)
(0.0258888 0.136995 0)
(0.00792192 0.142138 0)
(0.074467 0.0718217 0)
(0.0783765 0.0880505 0)
(0.0776126 0.104982 0)
(0.0720527 0.122042 0)
(0.0616259 0.138165 0)
(0.0466614 0.151974 0)
(0.0280573 0.162025 0)
(0.00729194 0.167151 0)
(0.0909508 0.0900776 0)
(0.0928533 0.107984 0)
(0.0897612 0.126498 0)
(0.0815995 0.144866 0)
(0.0683889 0.161907 0)
(0.0505854 0.176196 0)
(0.0292181 0.186325 0)
(0.00586509 0.191201 0)
(0.107654 0.109835 0)
(0.106988 0.129147 0)
(0.101129 0.148883 0)
(0.090068 0.168142 0)
(0.0739313 0.18567 0)
(0.0532976 0.200053 0)
(0.0292961 0.209958 0)
(0.00355547 0.214375 0)
(0.124191 0.131088 0)
(0.120447 0.151517 0)
(0.11144 0.172109 0)
(0.0972365 0.191853 0)
(0.0780802 0.209461 0)
(0.0546595 0.223568 0)
(0.028171 0.232936 0)
(0.000239486 0.236696 0)
(0.140127 0.153902 0)
(0.132838 0.17515 0)
(0.120345 0.196221 0)
(0.102806 0.216016 0)
(0.0805818 0.233273 0)
(0.05446 0.24671 0)
(0.0256557 0.255232 0)
(-0.00426384 0.258164 0)
(0.15488 0.178415 0)
(0.14362 0.200158 0)
(0.127347 0.221278 0)
(0.106337 0.240643 0)
(0.081065 0.25706 0)
(0.0523831 0.269402 0)
(0.0214819 0.276782 0)
(-0.0101989 0.278728 0)
(0.167603 0.204817 0)
(0.151989 0.226652 0)
(0.131708 0.247296 0)
(0.107185 0.265655 0)
(0.0789863 0.280694 0)
(0.0479777 0.29152 0)
(0.0152566 0.297477 0)
(-0.0179075 0.298265 0)
(0.17709 0.23334 0)
(0.156777 0.254697 0)
(0.132387 0.274176 0)
(0.104456 0.29084 0)
(0.073592 0.303913 0)
(0.0406192 0.312767 0)
(0.00648062 0.316983 0)
(-0.0277792 0.316402 0)
(0.181375 0.263954 0)
(0.156199 0.283942 0)
(0.127893 0.301306 0)
(0.0969815 0.315445 0)
(0.0640221 0.325892 0)
(0.0296853 0.332298 0)
(-0.00529095 0.334461 0)
(-0.0401464 0.332333 0)
(0.17718 0.294569 0)
(0.147798 0.311784 0)
(0.116461 0.325935 0)
(0.0835674 0.336773 0)
(0.0495235 0.344107 0)
(0.0147761 0.347801 0)
(-0.0202047 0.347789 0)
(-0.0549406 0.344079 0)
(0.172929 0.310049 0)
(0.141706 0.325506 0)
(0.109118 0.337828 0)
(0.0754799 0.346897 0)
(0.0411146 0.352625 0)
(0.00635332 0.354957 0)
(-0.0284692 0.353871 0)
(-0.0630174 0.349376 0)
)
;

boundaryField
{
    walls
    {
        type            fixedValue;
        value           uniform (0 0 0);
    }
    cylinder
    {
        type            solidBodyMotionDisplacement;
        value           nonuniform List<vector> 
34
(
(0.349376 0.0630174 0)
(0.349376 0.0630174 0)
(0.341517 0.0969589 0)
(0.341517 0.0969589 0)
(0.330369 0.129966 0)
(0.330369 0.129966 0)
(0.316039 0.161722 0)
(0.316039 0.161722 0)
(0.298666 0.191921 0)
(0.298666 0.191921 0)
(0.278416 0.220271 0)
(0.278416 0.220271 0)
(0.255485 0.2465 0)
(0.255485 0.2465 0)
(0.230094 0.270355 0)
(0.230094 0.270355 0)
(0.202486 0.291606 0)
(0.202486 0.291606 0)
(0.172929 0.310049 0)
(0.172929 0.310049 0)
(0.141706 0.325506 0)
(0.141706 0.325506 0)
(0.109118 0.337828 0)
(0.109118 0.337828 0)
(0.0754799 0.346897 0)
(0.0754799 0.346897 0)
(0.0411146 0.352625 0)
(0.0411146 0.352625 0)
(0.00635332 0.354957 0)
(0.00635332 0.354957 0)
(-0.0284692 0.353871 0)
(-0.0284692 0.353871 0)
(-0.0630174 0.349376 0)
(-0.0630174 0.349376 0)
)
;
        solidBodyMotionFunction oscillatingRotatingMotion;
        oscillatingRotatingMotionCoeffs
        {
            origin          ( 0 0 0 );
            axis            ( 0 0 1 );
            omega           1.5;
            amplitude       ( 0 0 30 );
        }
    }
    outlet
    {
        type            fixedValue;
        value           uniform (0 0 0);
    }
    inlet
    {
        type            fixedValue;
        value           nonuniform List<vector> 0();
    }
    frontAndBack
    {
        type            empty;
    }
    procBoundary1to0
    {
        type            processor;
    }
    procBoundary1to3
    {
        type            processor;
    }
}


// ************************************************************************* //
