/*--------------------------------*- C++ -*----------------------------------*\
| =========                 |                                                 |
| \\      /  F ield         | OpenFOAM: The Open Source CFD Toolbox           |
|  \\    /   O peration     | Version:  2412                                  |
|   \\  /    A nd           | Website:  www.openfoam.com                      |
|    \\/     M anipulation  |                                                 |
\*---------------------------------------------------------------------------*/
FoamFile
{
    version     2.0;
    format      ascii;
    arch        "LSB;label=32;scalar=64";
    class       surfaceScalarField;
    location    "1443.5";
    object      phi;
}
// * * * * * * * * * * * * * * * * * * * * * * * * * * * * * * * * * * * * * //

dimensions      [0 3 -1 0 0 0 0];

oriented        oriented;

internalField   nonuniform List<scalar> 
1171
(
-0.9279079329543092
0.9279079329133824
0.7872656320056578
-1.098810704635875
0.311545072653741
-0.1940070358200936
-0.7677569061317822
0.9617639420726437
0.07209206363591643
-0.1176984116803441
-0.2118911831673263
0.3295895948745802
-0.7872656531330913
0.0692642608634764
0.7180013922773889
0.8106173460471808
-0.1774707666994694
-0.6331465793284026
0.8740801299339781
-1.04353807375957
0.1694579438590095
-0.2847455332364489
-0.0982290113473247
0.3829745448489295
-0.0362372568695959
0.5484151455477371
-0.5121778887411995
-0.5082041187745515
0.8296984919661747
-0.3214943733426304
-0.4024439501979837
1.045554451876052
-0.1714743237829633
0.3953003801275752
0.04970324677554308
-0.4450036270498213
1.046331609901197
-0.0007771589678778809
0.4466872237631647
-0.05138683509185607
1.056810109404472
-0.01047850313694413
0.5790532165082239
-0.7730602500138304
-0.7242027579825999
0.5569932037693778
0.1672095541862567
0.2177967678586149
-0.7260008810253307
0.5498543099603957
-0.9224792604834937
0.372624950018247
-1.094207461060532
0.6865066985369248
0.4077007626290709
-0.595391980543038
0.5591547227218765
0.01749790035565365
-0.256081373640876
0.2385834722955318
-0.02380837257978897
-0.5244812011586711
0.5482895744376451
0.3998564005048079
-0.4980854148015004
-0.9188013848621792
0.9415751162377316
-0.02277373139534756
1.067861915012589
-0.01105180736730323
0.9351761705228058
-1.116954847824291
0.1817786772898041
1.067477716871637
0.0003841954842497207
-0.6642598923044202
-0.05994286634821831
1.262012064025298
-0.8644772781131929
-0.3975347858969729
0.1486763311425389
-0.1094265434210663
-0.3252933948510915
0.4347199384508081
-0.2856279103971627
0.1916477627726864
0.09398014803868847
-0.5834396859858568
-0.5153710060723774
1.014141364305792
-0.07896519718240883
0.009897069655569418
0.825463667596025
-0.8353607372547255
0.5717291129208401
0.6902829475672952
0.4389886044060162
-0.03092486640265558
0.4307812664836239
-0.8078352038843412
-0.1026269659794546
0.9104621698355346
0.5026154401011641
0.2540384574416978
-0.7566538975915901
0.003894456752254752
0.5310645836289343
-0.5349590403655641
-0.4899513168441868
-0.6042561444273628
-0.4228773821536231
-0.6940774692061252
-0.02753774760603958
0.2706749914062517
-0.243137243333047
-0.9249301803232377
-0.005213030787747734
0.9301432111177345
0.3078200737801308
0.07515446723927079
0.7620684125900762
0.04854893701135863
-0.5329410239004585
-0.06245095460734342
0.04624171359713942
-0.8540769180126784
0.0772068990241061
0.8618126329726965
-0.9390195320207122
-0.3473108136715139
-0.04072284744491446
0.3880336609062886
-0.6823947107159143
-0.24253547404915
-0.632386644106596
0.7095935430126992
0.6106883090915596
0.2190101842801899
-0.5431027508473703
0.9461342151382862
-0.7792559311900825
-0.1668782839689693
0.0180010898159708
-0.008413574484957246
-0.00958751632840792
-0.4031058552446222
-0.09497955957791902
-0.242038292213286
0.8527266086141794
0.04784158352365501
0.3336276867039655
-0.3814692700102673
-0.4612292019968188
0.963844649071724
0.6801984160325862
-0.7828253821577125
0.3178132673277005
-0.01488205515649315
-0.3029312133080184
0.9306671459205507
-0.9306671459158239
-0.7827235672440618
0.1114578847764415
-0.3233490681421903
-0.7500156370496996
0.7599127029241328
-0.09120368288548966
-0.1427060490830243
0.2339097321322656
0.8648917346548554
-0.03942807140519228
1.054593525360924
-0.8005550615488897
0.1864012591703297
-0.3160624839518538
0.1296612248517675
0.8587850394004791
-0.09671662798044013
-0.6115376529295646
-0.03945836485656506
0.6509960177914615
0.1236737269304253
-0.2306755075765562
0.1070017798521516
0.805563119672062
-0.9830338854935748
-0.4345597610732873
0.3292198944128031
0.1053398665711585
0.5328487168293315
-0.556657089114729
1.022101779260613
-0.4562808684254456
-0.5658209108629022
0.5992243925877514
-0.7192649217570175
0.06649056789158871
0.6527743541629532
0.1021311549287084
0.5702061014006733
0.05468624927647902
-0.624892350726579
0.1948302441467348
-0.08337235661191755
-0.4925331880512069
0.1452223741847377
0.05035596973822076
-0.8866723127264874
0.8363163429693907
-0.4747779590857681
-0.7132967452563288
0.0490368543948536
0.4364993551305392
-0.005718091046528118
0.3000672856812541
-0.8552984281523052
0.555231142267175
0.415740080196929
0.5842599198042044
0.5606376696936001
-0.5143959549272678
-0.3656548523200687
0.03772738438934603
0.3279274692627028
0.6812972473192525
0.2493698965161902
-0.5675631476144622
0.5714576090597663
0.1112059629191953
0.8748273988436882
0.01030702326669407
-0.6218446814827489
-0.7492154998268135
0.799571468425242
0.5307477287510175
0.07154043267958524
0.3003542041816967
-0.3718946369013241
-0.1675702199017639
0.4438255495968533
0.08723902724131131
0.8742500295748352
-0.8000093832016492
-0.07424064644629562
0.6355359880785326
0.310598221288595
-0.4306436008286025
0.5750691656336684
-0.5035287350729653
0.4170618584273997
0.1327924526797777
-0.04685872393568669
-0.5887058453393844
-0.1393128148251289
0.7280186602031069
-0.1496640808602763
-0.7810030656142253
-0.6110718400733178
0.3603306888231368
0.2507411519050426
0.6221894093044615
-0.6118823861137218
0.2383859190941374
1.011733920497423
0.04285961147755845
-0.7492155037924378
0.2196826082369673
-0.201681530815164
0.6801984136382162
0.8020874033888362
-0.8020874033880254
0.8376354617669028
-0.833207160097981
-0.004428301724151328
-0.4453482681234966
0.861088353031614
-0.1475645089906309
-0.3449686813990774
0.7347600694095022
-0.6685406883521356
-0.06621938100778135
-0.7340249696288879
0.1453191215730619
0.1390085787285207
-0.6719496007801573
0.7828253723646831
-0.9503955922253616
-0.3653049865031327
0.2860637750905004
0.07924121094410699
0.1457649000875626
-1.009767421728437
0.8640025216275142
0.4805176591881904
-0.04152905473921818
-0.308111101329003
0.5862896592530399
-0.2781785579819013
-0.7384167537962726
0.8841816573558148
-0.1570665300744248
0.734015079046732
-0.8359924173280291
0.101977338079335
0.9781859951448416
-0.5407430967405319
-0.4374428984089327
0.7552286731925152
-0.06485147500574211
-0.03628336849465924
0.1868073071791032
-0.1505239380941767
-0.7757476976528521
-0.8419362070951141
0.0741793023508433
-0.7500156394946647
0.5141089711835795
-0.5548318207795795
0.09379123894330639
0.716758158589231
-0.810549397612257
0.7536438017041989
0.1742641315010279
0.5029005671331533
0.4970994328794744
-0.05477481066236958
-0.6069160269430761
0.6616908376667494
0.8782875354201277
-0.004037507771756411
-0.7552286731991502
0.7995714641394134
0.19141627106117
-0.447497644510327
0.01568748928897584
0.001853628667291304
-0.01754112018551603
0.5894960133606945
-0.4378982678543566
-0.1515977456428813
0.7180014047056948
0.01333054505372783
-0.1079211219633196
0.4384452051094887
0.1510508119914108
-0.01388170028984312
-0.0074826524756668
0.02136435309216558
-0.03326441634816419
-0.003018934611084348
0.2447603178096434
-0.2596423801464161
-0.959153940389145
0.001966505874639134
-0.1595824762398899
-0.1205446708582052
0.09478246498153478
0.7218063608168883
0.728961500916621
-0.1447015807287789
0.6645212846789698
-0.5707300483226855
-0.2119647187235912
0.3983659786041451
0.6955571295793925
0.02244427513200319
0.2417077648856799
-1.074914926149489
-0.9503955949060443
0.3021019886268687
0.7599126999052529
-0.2090902116682657
0.0663841722412572
-0.7237728695050606
0.9095563113497153
-0.1857834419035404
0.4162326758074745
-0.02819901927299674
0.7714648661712208
0.2807350674608946
0.3747802816325674
0.07190692002012193
-0.6587077435096594
0.6587077435262401
0.2148450052458792
0.6956171638871953
-0.05558402110778863
0.3892116934056328
0.3791359223668604
-0.01218927505996948
0.02787679101214581
0.4488424970219989
0.03167516269265273
-0.7384167526450639
0.5340399308198792
0.2007201360672872
0.3026791570699543
-0.1158718486519368
-0.6955571374835022
0.179535550172928
0.7300207667740767
-0.01028951331851279
-0.8135913646562084
0.8238808780018589
0.6963641443520823
-0.7919874406136974
0.09562329626818362
-0.7536438034139512
-0.1510701421312611
0.2120987774670229
-0.06102863469013334
0.07752074747816187
-0.178579312692337
-0.113486989691043
0.2920663022967754
-0.004993416053101032
-0.008888286937296519
0.706593809453982
-0.7168833212885211
0.8860476659139308
0.07571627752878783
-0.3171239021927992
-0.5182256875988148
0.8353495900003193
0.1040830819214298
-0.1040830828075144
0.3237911612318484
0.4724661603271539
0.6178391969418668
-1.090305357404532
-0.1940917829992979
-0.585639291047226
0.7797310740440671
0.0138190140673456
0.2200907219575228
0.3765832358484726
-0.2529095038275677
1.014811687291571
-0.5423455273777009
0.6669431719851949
0.9942548306251897
-0.3764156331167458
0.2290187297053908
0.88418166122427
0.7127073354091524
0.2138329613806054
0.7277421541613911
-0.7810030672403512
0.3412922649326158
-0.278169831284261
0.2501484635073914
0.02802136693149413
0.8463865398975293
-0.003480317564901214
-0.8429062224335443
-0.7022288295393816
0.7026130245768423
0.5546517343344818
-0.7022288306836101
-0.7127073354170118
0.7026130229903391
-0.03471442691534374
0.9086794542096739
-0.02263178886077761
-0.6812972482113936
0.6123255685977826
0.06897167960954666
0.5385727893615359
0.5370728055743779
-1.075645594925361
0.4891996961221768
0.5256119912358399
0.5443570280382202
0.4582405769489164
-1.002597605031827
0.49446002610872
0.4997948049756916
0.6123255693703332
-0.5255514080155759
-0.4655568992339728
-0.5567683995070156
-0.5164427996370768
-0.1192342546782772
-0.01238850327095227
0.01238850373407536
0.5126290972605088
0.5235919783945977
-1.040034778128458
0.5734545769135624
-0.2731003770021557
-0.8848309181289947
0.3440878223055149
-0.6331072291105917
0.3905717534614968
0.00233001019063648
-0.8270216086439199
0.8246915984240935
0.420850408227153
-0.01998264693135564
0.8663691914374624
-0.9495105465019126
-0.8330669641735926
0.05376041828945322
0.7793065458831613
0.5670874194896949
-0.4399998681763149
-0.1270875510826014
0.6501977379967298
-0.7291629366072128
0.8880792551685487
-0.8303310755636687
-0.05774817950544193
-0.01168861411966623
-0.7883207703346492
-0.1101763838630412
0.7121253573033858
-0.6019489734474176
-0.9375714782607427
0.9258828631074166
-0.724258019492952
0.6909621165322326
0.0332959029342912
-0.8103560592431421
0.03742226691245681
0.772933792393337
0.06186729432649091
0.0422157852306996
0.4328597503588865
0.06143129619467187
-0.8517744988507812
0.7903432025527899
-0.644640524558454
0.5898657204736455
0.8887123858159542
0.07153881593638743
-0.9602512018621328
0.05564541967332191
-0.04850306133364772
0.3764305323830313
-0.3817445397035337
0.0656820589887829
0.8417725079295213
-0.8394424988223252
-0.7346397824477728
-0.8155805805052667
0.02725980918091136
-0.1630904626909503
-0.8521620499676663
0.02183097228961074
0.6222806678928037
0.04224061437918317
0.03376224579375901
0.5333251722763426
-0.8093624369735061
0.8467847030746819
0.5658209140166424
-0.8470042600923853
-0.8660326640303516
0.04264678924297588
-0.03050164865089872
0.8369390708519013
-0.8064374221806898
-0.0274704560350352
-0.7651414279716751
0.5443245963602327
0.1520395506253497
-0.02757663522940095
0.8939458268211919
0.9796432803741334
0.8628263125208724
-0.8409953415688136
0.1478321560665202
-0.1478321574833598
-0.1182118829041002
-0.4767725868779351
0.0367727168883103
0.2702633170942593
0.03183867174299577
0.3881108335751658
0.8664753707384002
0.007701224596387686
-0.01269464701620651
0.6585917829603413
0.3414082170552923
0.7836356271895162
-0.5834396852569115
-0.7781107743010709
-0.8099177346304975
-0.6798392909537001
0.6798392909472898
-0.1679637423644984
-0.1553853364128339
0.6022492807552998
-0.8120342579128945
0.2097849771678303
-0.4939132337392008
-0.5689664887316681
0.2780804885723477
-0.9721579590883103
-0.90109383580858
0.8433456535859274
-0.8121662364130703
0.8394260450754386
0.6487077609358755
0.1341551885823847
-0.78286294952045
-0.7766218238113766
-0.1462041641355617
0.7243963662629646
-0.5781922021075866
0.0346184657532962
-0.01313648978958541
0.01730023105190147
-0.004163740432469527
-0.3542502373752692
-0.1225223502603445
0.8803297682180505
0.7479403236769611
-0.2467592166186435
-0.501181107062043
0.6208527720715753
0.6855341925653284
-0.4706891869076294
-0.0001699176027728858
-0.285457993978171
0.01963450671537768
0.7500203631479447
-0.7696548698490304
-0.3234501999870286
-0.07318291109443448
0.0762107086689222
-0.9629310971788038
0.1200248777099997
-0.6778790707467801
0.05238702406076279
0.6402923003846133
-0.6926793243979243
-0.7561843701584159
0.07830529939212699
0.5880459718609602
-0.6612288829133156
0.1574944582144358
-0.336073773949628
-0.770522359409751
-0.0060994644055487
0.3711370320212792
0.6006200137491072
-0.0255508530329634
0.02017670234560316
-0.02017670319573382
-0.01987114908951766
-0.04848809474600476
-0.2296817428914675
0.02801908781134259
-0.02031783505244486
-0.728281736213737
0.2792524386039477
0.6805924140554707
-0.6888412363389258
0.008248822428743766
-0.5943558844759922
0.6467429076320327
0.6535288626591597
-0.06548288928290839
-0.631005115009435
-0.1251792568784147
-1.050681632484583
0.01103511321686898
0.1367970429736687
-0.7086472275684645
-0.7411815047504998
-0.7633200376128497
0.3657852494766833
-0.4096748759619311
0.4615340513230656
-0.05185917555696389
-0.6643599342155266
-0.0442872932520025
0.5018719022803473
0.7306838408650902
-0.2349460217787646
0.1144013524925811
0.9690305545282115
0.4465938089157021
0.1335658737764609
-0.5801596827218206
-0.6772376373970926
0.01287770069044595
-0.04477240807424199
0.03163591933345093
0.636261841208122
-0.7755746589589638
-0.001697578199953771
0.001697577568897545
-0.6012655267885891
0.6486342983378826
-0.04736877145521435
-0.6434753968652521
-0.1131223016481086
-0.6714887966491456
0.05892673001700344
0.6027641192832631
-0.1372511377041301
-0.8176929601096179
-0.5672229664964978
0.5663189353294217
0.0009040320305588321
0.6300383242818394
-0.6217895039532195
0.322509009727333
0.2140088711430271
-0.5365178808844179
-0.1049196641469249
-0.6014295338948361
-0.09124979141427104
-0.1546717230116206
-0.5082962390502835
0.4040941732682685
-0.4990737290274724
0.1269403623381198
0.678355044252842
-0.8052954066245087
0.5992243925838078
-0.3670633373268156
-0.04261153103946979
0.08324978753938823
-0.5915460266728706
0.5516242899152702
-0.04063234827170477
-0.5109919418168705
-0.3128836317089974
0.3054304726275741
0.007453160106254478
0.4545542730911143
0.1189003024297764
0.05209932966857635
-0.3163478500607234
0.1573026585803658
0.1590451916654657
0.2271321265002302
-0.007449506967867807
-0.2930040618017795
-0.3103819018801253
0.3533461994663228
-0.04296429490262818
0.7869680551203314
-0.6257109929300775
-0.01776440397188845
0.499211859545271
0.281772621953115
-0.5285318476291009
0.5775045146401169
-0.5775045146407873
-0.2897354458352919
-0.5864403274035349
-0.2955897101925649
-0.5864403273094552
-0.5944659550418461
-0.8385076476562863
0.1699669586883598
-0.5889382766315834
0.8210990093739511
-0.003207525462914713
0.1178705232571408
0.482749486370152
0.09675872842694966
0.1859367437643734
-0.03649678832539131
-0.1494399550884603
-0.0226193458485989
0.5928910985505813
-0.9454627755468289
0.4272370873174732
-0.00585538471175768
0.003940174562520733
0.001915209687014753
-0.6436750896833434
-0.1317689562195496
-0.4684020198728719
0.6019678906305479
-0.5036105120767135
-0.3277882199928182
-0.2637578107444486
-0.2710925413860903
-0.1116860245535939
0.1116860252759987
0.1526444019948114
0.05945439472666512
0.1969718664368907
0.4540845427678311
-0.5724247958933949
0.1040227752089048
0.2442930612109969
0.4664488964638346
0.5335511039582482
0.6419650533126167
0.08867116691146162
-0.006558061881165587
-0.08211310674832763
-0.2770048875912112
-0.5406880724891879
-0.5518580970807828
0.1145656036161499
-0.1264533769902502
0.01188777372381469
-0.1055243725703088
-0.3856010247512576
-0.04760917218617971
0.6503732945252172
-0.4988289681659408
-0.1448461215113947
-0.3362017962128619
0.2904898633661474
0.1260696797596157
-0.6150173423426394
-0.20446051962533
-0.2625385801581222
0.002896198884841521
-0.4221293859946924
0.3237271438358874
0.09840224220914932
-0.09596255457342252
0.2916878637119095
-0.8959440059009218
-0.4576828018778251
0.6277539532465883
-0.7731375082593345
0.6682178441458272
0.3407086303018191
-0.124326264945985
0.224230744935203
-0.09990448048517921
0.02495340523287048
-0.5862957909368748
0.02901157864160189
0.5572842121471399
-0.9006507949239906
0.5475395748145562
-0.6657514577726886
-0.1021171241388967
0.1098451108235484
-0.1098451124946029
-0.316517769858063
0.3611797260681047
0.01525080759267093
0.03120411825614136
0.05746706148162092
0.5051968720009368
0.6630682715351168
-0.7373089191504503
0.0330577328638899
0.02218268411044325
-0.002005999923317002
-0.007268887035523202
0.007268887790665162
-0.4158452430956807
0.5347455455845764
0.01556858855883927
-0.01556858849339806
-0.792375891826143
-0.06118653216320189
0.123053825255695
-0.4573716121159976
0.5613943870609837
0.4522523538642595
-0.4996211288780141
0.1501705396823099
-0.1501705409365634
0.03146010057314868
-0.003583315297633043
-0.04244784783582025
-0.9756057729322267
0.5381628753220529
-0.4677044136552838
0.04221578512056101
0.5147939495385863
0.03092758308612376
-0.5457215327299082
-0.6163051141133364
0.1174761456145322
-0.3292232355226436
0.01346996255647112
0.3157532721988288
-0.1555405842121949
-0.07940543470427461
-0.5409514332707276
-0.04534435701107724
0.1367970404611733
-0.03996850158982331
0.0382709177715984
0.08058664245959155
-0.080586640918256
-0.531458475043638
0.4884941717247426
-0.414723654498201
0.1613244818444907
0.6223111453711972
-0.09741020331567368
-0.002876459066028162
0.002876459499939307
0.5329394538239797
-0.08169217301411373
0.005762025875271738
0.02695192593626176
0.03494690038044845
0.6844797232800826
-0.7661718963040179
-0.652707358412734
0.634942952301476
-0.1065246989883556
0.3135403893573637
0.7459283668718864
-0.0198711481197586
-0.2665362864190206
0.1506644315342774
-0.7446196828977895
0.4841177239187541
-0.4268482744296889
-0.1015111633499462
0.003373161329777667
-0.01425996790921218
0.02146101387590938
0.4108110809049026
-0.1215494334332184
-0.3894425023846356
0.6287897715450707
0.0196574000302066
0.01028099434054408
-0.01028099446955741
-0.3518125338825981
-0.07737393440280588
-0.560363534153935
0.5571560086221449
-0.2378132554856631
0.4647402348850448
-0.1511668294121085
0.7302200461735432
0.6711963960026396
-0.0399684952596355
-0.6170977436287535
0.5632752741947391
0.2877002106035675
-0.2839529700841539
-0.003747240414844957
0.538980399849147
0.09339896325823857
-0.03905448529069626
0.1961122873501842
-0.1570578018339888
0.1196411140349346
-0.1196411122719867
-0.8587019344563757
0.002338393452032713
-0.1135995055432596
0.1405514307140928
-0.1316792209876338
0.1316792219732888
0.022182688813871
-0.02274762494316193
0.6699845599247957
0.06003620736536123
-0.3227572544133325
-0.06284377037960752
-0.4712294652105282
-0.04850158821389824
-0.1513664189936992
0.1513664203180956
-0.05065300560093908
0.1435617617159859
-0.1435617629195266
0.1361901135711768
-0.1361901120609289
-0.3159608958854745
-0.1146827049283287
0.2261707761845164
0.1030491218849188
0.03482105511550342
-0.8211411182972989
-0.1984376692587056
0.1700385955834899
0.02137768039654361
-0.2646349319826827
0.1260609413230578
-0.1260609423812372
-0.4142114357225339
-0.08486229486196915
0.2359844674521182
0.002599009987012605
0.04061813792358802
-0.543752733323736
0.578467160231362
-0.03465871344613304
-0.01599429240134122
-0.0270569659457284
0.02347365603600825
0.00660880385572993
-0.1846659559891818
0.178057152034499
-0.1086859345023389
-0.2273878402002706
-0.144498823245396
0.1444988244742975
0.07264963713634912
-0.07264963649262601
-0.01915016022064286
-0.108573679254612
0.1277238388606143
0.2391030317435602
-0.1832224087552629
-0.02889399207253388
0.02688799315353674
-0.1352092974683187
0.6237034680791743
-0.03903638988781183
0.4261850833367686
-0.04342335668438516
0.06478771944482001
-0.1530670246912916
0.1530670261876828
-0.6367398791725399
0.3083690040372326
-0.07935027525475424
-0.2342496025998674
0.003574091631262182
-0.1207717685534213
0.1613899069665863
0.1959369642498705
0.09612933677088392
0.09697210261271072
-0.06202520203249507
0.07294023218509926
0.04162537245822399
0.06406392544860461
0.1059746650936732
-0.09772496445858259
0.2121263007432251
0.01197857554850429
-0.1180428193796637
-0.09975635339904608
0.09670013509885672
0.003056217028710253
0.0119016903626983
-0.02376595750022026
0.03758110700896038
-0.03758110690165284
0.07534051596362726
-0.05513217690634061
0.05513217715433467
-0.2244418911228857
-0.05325509796581075
0.01156268154306624
-0.1030524558287768
0.0165489895261396
0.1086453343185119
-0.1086453349833104
0.2943392008195589
-0.2711586729589588
0.162472739958824
-0.05106971520858725
-0.2200889570770439
-0.01715610056547778
0.0171561001912004
0.3675696655095816
0.2852046816373732
-0.5279256169573959
-0.09396358861556979
-0.03248978288457448
0.528894141911418
0.2120460453119905
-0.1704069458384858
-0.379625071101716
0.07647932649321047
-0.1474081232450913
0.186948247580559
-0.03954012396388307
-0.06701994122969659
0.06701994074319177
0.8224076933598753
-0.5605291708348429
-0.006327935974710016
0.01822962592900905
-0.01999318020081214
-0.2871542841150312
-0.01750080970201801
-0.01281960148691954
-0.132053494674756
-0.5722003506497289
0.5560917611717541
-0.5693953775277227
-0.006867586674273978
0.1023467623877383
-0.001700612276642057
0.01687692384898696
-0.1674012975599101
-0.3362379039013843
0.2331854478982747
-0.05421866447676688
0.03506851068976086
0.1319255509073797
0.1735049197987126
0.33960924593942
0.2761363296894367
-0.2778369425313817
-0.06148542975395872
-0.155228741134149
-0.2207796292998041
0.07464368321380799
-0.01057975957869259
0.2136629690986817
-0.1967860456166775
-0.0862949085103162
0.1592351341373307
-0.3553865084972227
0.2081275195061101
-0.1915785298837015
0.08957180558827141
-0.4790143073604773
0.1741286472909036
0.1704344499017898
-0.2567293569382514
0.07320614810293678
-0.1947136115500345
0.1772128021439757
0.01741562960427274
0.1418195083497149
-0.03956358818409161
0.06577662163156428
0.4671628325117169
0.02042501279228897
-0.08314680712175945
0.05382379878420167
0.1262914694064199
-0.2603197397823355
-0.2308980370438879
0.559740313516597
0.157270617787393
0.07871384703550885
0.07487269025502061
-0.030955592868293
-0.01141956316841285
0.007672308745444081
-0.03272468913812699
0.1708351585993723
-0.1777027456490642
-0.06168579542971612
0.02056006780027593
-0.1471015580895451
-0.05289409629766142
0.150440531272706
0.2770525918662102
-0.03891644065042067
0.01205409375484318
-0.2555868511880811
-0.132660537044086
0.2361165042045619
0.1785443280743902
0.1298246758783329
0.02208444031801548
0.08868744729362683
0.05240015868510756
0.4527967133108988
0.01503478979705475
0.09768417253698861
0.04330444923267811
0.0720533698952735
-0.1153578180279771
-0.2427209398314171
-0.2006287677594669
-0.01946018749952409
-0.201961713290684
0.2750470471283029
)
;

boundaryField
{
    FrontBack
    {
        type            empty;
    }
    Top
    {
        type            calculated;
        value           uniform 0;
    }
    In
    {
        type            calculated;
        value           uniform -1;
    }
    Bottom
    {
        type            calculated;
        value           uniform 0;
    }
    Out
    {
        type            calculated;
        value           nonuniform List<scalar> 10(1.033556724524497 1.064124198430871 1.022325298736976 1.02007201715323 0.9953133836793341 1.016237604858191 1.036221075480547 1.062879722444548 0.8672399614019866 0.8820300376231839);
    }
    circle
    {
        type            calculated;
        value           uniform 0;
    }
}


// ************************************************************************* //
