/*--------------------------------*- C++ -*----------------------------------*\
| =========                 |                                                 |
| \\      /  F ield         | OpenFOAM: The Open Source CFD Toolbox           |
|  \\    /   O peration     | Version:  2412                                  |
|   \\  /    A nd           | Website:  www.openfoam.com                      |
|    \\/     M anipulation  |                                                 |
\*---------------------------------------------------------------------------*/
FoamFile
{
    version     2.0;
    format      ascii;
    arch        "LSB;label=32;scalar=64";
    class       volScalarField;
    location    "43.7";
    object      p;
}
// * * * * * * * * * * * * * * * * * * * * * * * * * * * * * * * * * * * * * //

dimensions      [0 2 -2 0 0 0 0];

internalField   nonuniform List<scalar> 
808
(
0.117609
0.0399344
0.0721897
0.116678
-0.300486
0.0364975
0.0273205
0.0355721
-0.17541
-0.0313493
0.0682751
-0.201777
0.0371967
0.0304676
-0.126959
0.0373873
-0.118711
0.0288126
0.0659359
0.0239263
0.062905
0.396611
0.103619
-0.00317086
0.47434
-0.121448
-0.0904139
0.0162357
0.0217112
0.0437154
0.0236004
0.0278225
0.0404496
0.0271208
-0.0878706
0.622648
0.0402466
0.0537234
0.0384014
0.0346271
-0.0520606
-0.0830153
0.0645867
0.0526592
-0.156876
0.120156
0.0427973
-0.0262357
0.041254
-0.216756
0.0385464
0.0122945
0.0759595
0.0113281
-0.0399241
0.0399834
0.0143949
0.0734776
-0.0368234
0.0338363
-0.309964
-0.0263899
0.0376128
-0.187997
0.054048
0.0753903
-0.34915
0.0388331
0.0845171
-0.357113
0.0451126
-0.403869
0.0359399
0.0343314
0.150759
0.0535641
0.0252755
-0.0227583
0.0373705
0.341244
-0.0727243
0.0366399
0.0541194
0.255574
0.0563843
0.0079096
-0.449835
-0.0593578
0.0421228
-0.107401
0.0434094
-0.124139
0.278614
0.186158
0.0689644
-0.303241
0.0342537
-0.105406
-0.12381
-0.279932
0.0412393
0.0280094
0.0496821
0.017862
-0.0271013
0.0903287
-0.198589
-0.0308686
0.0376526
-0.00887393
-0.00288275
0.356205
0.0429017
0.0130059
0.0400442
0.449029
0.0347831
-0.343555
0.041289
0.0627789
-0.196318
0.0647598
0.0347713
0.0611953
0.144029
-0.00682453
0.0968798
-0.00937552
0.0198963
0.097424
-0.43696
0.0353318
-0.0334947
0.158535
0.0400182
0.0354337
0.055608
0.00663869
0.0424044
0.0290382
-0.223478
0.0464106
0.0797477
0.0445483
0.014692
0.000252332
0.0956515
0.150399
-0.166016
-0.0318348
0.0436249
0.36643
0.043807
0.548223
-0.275018
-0.0450801
0.0371917
-0.164862
0.0818664
-0.0628156
-0.394339
-0.243152
-0.403522
0.038013
0.0907124
0.044905
0.0380009
-0.4439
0.037185
0.051961
0.0482051
0.189089
0.0153622
0.0879056
0.0372618
0.0699066
0.100985
-0.189749
0.0430837
-0.439914
0.0537559
-0.0831144
0.0355493
0.248968
-0.150393
0.148378
0.0492767
-0.140383
0.0580414
-0.0997933
-0.247191
-0.0418592
0.0416596
0.0744144
0.0366694
-0.186067
0.04254
0.0411839
0.0143406
0.112646
0.0696322
0.0341277
0.0432938
-0.416578
0.38687
-0.199445
-0.387148
0.0175758
0.0547904
0.0423939
-0.00406988
-0.497296
-0.39518
0.0386034
0.00191417
0.0354361
-0.418654
0.00687972
0.00288998
0.00761449
-0.000413443
-0.0413225
0.040834
0.0394813
0.0137464
0.0426526
0.156887
-0.418419
-0.0507142
0.0231192
0.148881
0.0254653
0.0268104
0.02172
-0.0626732
0.0292944
0.0160973
0.00749116
-0.0017311
0.0274459
0.00322616
0.0120467
0.00390751
0.0112477
0.00968521
-0.0109423
0.0173672
0.0268175
-0.0228967
0.0259662
-0.407014
-0.00358812
0.0244367
-0.00964659
0.0213079
0.0365568
0.0402876
-0.00701296
0.0319028
0.158321
-0.036019
0.0346775
0.0293551
-0.0685899
0.0685518
0.00784599
-0.034979
0.0404725
-0.0385878
0.0408482
-0.016715
-0.498364
0.301304
0.0484935
-0.104325
0.0192528
0.0601104
0.0301558
-0.207081
0.246024
0.0152524
0.0333564
-0.0384569
0.0868688
-0.250625
0.0307466
0.0355422
-0.0928251
-0.00540358
0.0628765
0.0386931
0.0328091
-0.0256722
-0.00799149
-0.0623193
0.0387062
0.0141204
0.0910108
-0.0280753
-0.014492
-0.0292107
0.0337487
-0.0129568
0.0442964
-0.60639
-0.0474813
0.0482922
-0.0695544
-0.210613
-0.22178
-0.00240261
0.0370464
-0.396741
0.121472
0.144461
0.0441989
0.0368823
-0.0634824
0.0127738
-0.286964
0.0520817
-0.00797261
0.0567605
0.0555564
0.00680266
0.0481971
-0.0452931
0.0138193
0.0195224
-0.325128
0.051668
0.0459411
-0.0378108
-0.0904565
0.0396578
0.257865
0.0202014
-0.17603
0.543426
0.0843714
0.0137798
0.0525937
-0.0875533
-0.00473456
-0.0211138
0.0541696
0.00638643
0.0411113
-0.0261392
-0.177095
-0.0157494
0.138524
0.0193501
-0.297834
-0.399034
-0.464215
-0.413752
0.00944492
0.039708
0.0201879
0.0322608
-0.0079801
0.019588
0.045496
-0.000604018
-0.599955
0.0593982
0.025194
0.062655
0.0563357
0.0353422
-0.0188875
0.108829
-0.4632
0.0300763
0.0472857
-0.0116789
0.0902432
-0.345555
0.0332968
-0.253025
0.0215859
0.0524329
0.068456
0.0367497
0.0544189
-0.125796
-0.434015
0.0266528
0.0277092
-0.145082
0.0398277
0.033304
0.0315291
0.00718791
0.0298962
-0.19925
0.0182837
0.0380715
0.041599
-0.183251
-0.300906
0.0992439
-0.0623236
0.0372466
-0.00955139
0.405761
-0.114352
0.0171051
-0.0582378
0.0342775
0.0223491
0.0488839
0.0609883
0.00370693
0.0339252
-0.0116835
0.0032031
-0.00339561
-0.00617482
-0.012506
-0.00852233
0.0358834
0.108245
0.0269752
0.0297656
0.0191878
0.0611288
0.0320929
0.0527799
-0.458779
0.0403829
0.0504039
0.0196234
-0.183585
-0.353785
0.00305688
-0.132938
0.0627135
0.0440858
-0.410319
-0.300127
0.28231
-0.407582
-0.546719
0.00700395
-0.0908284
0.0599435
-0.349001
0.347378
-0.04721
-0.374764
0.0296448
0.0990753
0.543485
0.0294119
-0.00353448
0.087452
-0.079792
0.0141325
-0.358674
-0.19131
0.00628456
0.060951
-0.0309598
-0.330186
-0.408728
-0.128879
0.0432126
0.0355241
0.123524
0.00899653
-0.0453263
0.110424
-0.0214749
0.0368188
-0.146801
-0.237586
0.0597229
0.042498
0.0399041
0.0447547
0.0776839
-0.00762245
0.040657
-0.566332
0.440344
-0.18062
-0.336983
0.0202686
0.00879727
-0.305702
-0.277933
0.112869
-0.423839
0.0498766
0.864123
0.0387458
-0.446256
0.0344123
0.0974523
0.0279631
-0.549233
-0.281652
-0.393394
0.00476528
0.00407021
-0.453213
0.0244873
0.0118427
0.143477
-0.427596
0.0646329
-0.600299
-0.26588
-0.326322
0.0681718
0.0453243
0.0358572
0.137305
0.115403
0.0399818
-0.341078
0.290452
-0.0805822
-0.0162235
-0.538696
-0.597749
-0.432601
0.00829227
-0.439226
-0.0691412
0.0626824
0.0333
-0.0832057
-0.294359
0.0300305
-0.381283
-0.182763
0.0155163
0.029643
-0.414178
0.0260082
0.0711247
-0.471499
-0.437813
-0.0734997
0.136646
0.0432268
-0.417676
-0.249136
-0.252766
0.0852205
0.0791711
0.132879
0.00646155
-0.390188
-0.230086
0.137775
0.0420865
0.0845699
0.0559912
0.0498944
-0.273872
0.0500158
-0.339298
0.0553267
-0.228635
0.116755
0.00699176
-0.305122
-0.391863
0.000821896
-0.563708
-0.559969
0.0720095
-0.00876095
-0.264748
0.0146216
-0.362276
0.0324389
0.120913
0.0532529
-0.232416
-0.0358911
0.145335
-0.381038
0.00130283
-0.356075
0.0361298
-0.398982
-0.441717
0.0713288
0.309258
0.443199
0.0177902
0.00508274
0.00639705
-0.433912
0.659406
0.0446264
-0.126347
0.0249254
-0.140992
0.0646902
0.515681
-0.312522
-0.0139531
-0.0063394
0.0321057
0.0342273
-0.389306
-0.315332
-0.391001
-0.252683
-0.351945
0.0252649
-0.443815
-0.0767687
-0.194233
-0.243066
0.559264
0.625779
-0.172485
0.0676704
-0.281368
-0.00302359
0.108354
0.456822
0.114141
-0.406456
0.00918236
-0.438407
0.0197302
-0.139417
0.0318003
-0.259289
-0.184976
0.00839976
0.0057709
-0.406793
0.411047
0.698206
-0.454741
-0.248114
-0.435792
-0.0257264
-0.25025
-0.253848
-0.087827
-0.406965
0.790917
-0.282338
0.725862
-0.50656
0.306485
-0.408842
0.0400483
0.214792
-0.433865
0.166509
-0.174728
-0.244447
-0.273982
0.89177
-0.30111
0.191383
0.120076
0.62589
0.106078
-0.215779
-0.187606
-0.0816655
0.0236324
0.139513
0.483458
0.0198455
0.0219644
-0.254097
0.176323
-0.178886
-0.251724
0.0570917
-0.155436
-0.235284
-0.0915295
-0.466396
0.0381856
0.0946711
0.0351786
0.11442
0.0896681
-0.267493
-0.288237
0.0582568
0.0524903
-0.395097
-0.443276
0.228995
0.229992
0.0894927
0.705435
-0.138129
-0.292027
-0.316984
-0.240329
-0.112217
0.130386
0.785767
-0.382389
0.336646
0.0340349
-0.36049
0.190764
-0.0163339
0.353263
-0.085511
0.0491322
-0.417581
-0.146054
0.142727
0.805606
0.321083
0.789952
-0.472747
-0.225657
-0.515292
0.213553
0.29959
0.0956147
0.420393
0.0754365
0.500147
0.317317
0.00813797
-0.257798
-0.0143107
-0.258584
0.89576
0.404151
0.691127
0.521619
-0.202538
-0.469082
-0.267075
-0.361453
0.0802368
-0.493335
0.047676
0.626677
-0.499714
0.00940405
-0.365977
0.220057
-0.275029
-0.304383
-0.097362
-0.215499
-0.279753
-0.36653
-0.42708
-0.073777
-0.519943
-0.203194
-0.364584
0.185882
0.629648
-0.150292
-0.414852
0.855915
-0.409091
0.251878
-0.174137
0.343083
0.0787843
-0.485363
-0.329703
0.489066
-0.354609
-0.257897
0.145931
-0.212505
0.0295524
-0.244624
-0.0594855
0.046368
0.554378
0.784701
-0.248896
0.207136
-0.245796
0.835391
0.0299722
-0.247625
0.034075
0.75644
0.242092
-0.255753
-0.249721
0.430726
-0.149942
0.0838687
0.396994
0.285492
0.277771
-0.185912
-0.193106
0.694541
)
;

boundaryField
{
    FrontBack
    {
        type            empty;
    }
    Top
    {
        type            zeroGradient;
    }
    In
    {
        type            zeroGradient;
    }
    Bottom
    {
        type            zeroGradient;
    }
    Out
    {
        type            fixedValue;
        value           uniform 0;
    }
    circle
    {
        type            zeroGradient;
    }
}


// ************************************************************************* //
