/*--------------------------------*- C++ -*----------------------------------*\
| =========                 |                                                 |
| \\      /  F ield         | OpenFOAM: The Open Source CFD Toolbox           |
|  \\    /   O peration     | Version:  2412                                  |
|   \\  /    A nd           | Website:  www.openfoam.com                      |
|    \\/     M anipulation  |                                                 |
\*---------------------------------------------------------------------------*/
FoamFile
{
    version     2.0;
    format      ascii;
    arch        "LSB;label=32;scalar=64";
    class       surfaceScalarField;
    location    "1570";
    object      phi;
}
// * * * * * * * * * * * * * * * * * * * * * * * * * * * * * * * * * * * * * //

dimensions      [0 3 -1 0 0 0 0];

oriented        oriented;

internalField   nonuniform List<scalar> 
1171
(
-0.9279301445959056
0.9279301446455847
0.7872827355308469
-1.09875985756823
0.3114771218277488
-0.1949297096297279
-0.7666331034572587
0.9615628131200686
0.07206985865176201
-0.1171773702717382
-0.2117781080333279
0.3289554789983373
-0.7872827470914324
0.06933379716103327
0.7179489499149785
0.8109706991747523
-0.1774051274399008
-0.6335655716448001
0.8743322133422253
-1.043524755664965
0.169192542274666
-0.2847658703956636
-0.09767668353755916
0.3824425535126141
-0.03591823516792916
0.5483923538151111
-0.512474118555034
-0.5050430563748727
0.8276395014560923
-0.3225964451376054
-0.4019432459589086
1.0457955451181
-0.1714633318622579
0.3958797746931614
0.04807495461199596
-0.4439547279253953
1.046402123698995
-0.0006065789489295304
0.4457620754181075
-0.04988229790675824
1.057000891400771
-0.01059876465312507
0.5776766981385238
-0.7726064134940248
-0.7244223868683337
0.5571832420156454
0.1672391449461498
0.2214717875551528
-0.7265148363468614
0.5503574933758966
-0.9227156343722183
0.3723581419146789
-1.094172714493108
0.686388905182912
0.4077838091881122
-0.5953515276773187
0.5594332855642355
0.01812983293195267
-0.2568687721930478
0.2387389403599738
-0.02457842491599197
-0.5225265897742024
0.5471050151399506
0.3999254474053223
-0.4976021371284209
-0.9187430459740166
0.941424676092274
-0.02268163014768012
1.067669578993965
-0.01066868590476785
0.93519693192682
-1.116961776139888
0.1817648443023177
1.067304862011802
0.0003647208883047295
-0.6643229404154607
-0.06009944794586233
1.262133320678851
-0.8643929707682697
-0.3977403499057564
0.1485618207482866
-0.1089262495410894
-0.3259435240845017
0.4348697732594443
-0.2857496111795119
0.1910796850054755
0.0946699256545051
-0.5833884132284821
-0.5153714388840422
1.014082347428373
-0.07888541487735165
0.009939196209082811
0.8254343079772984
-0.835373504242322
0.5718380654078823
0.6902952527864303
0.4394661005718254
-0.03039686031922609
0.430322307866379
-0.8076704717090814
-0.1026056118900567
0.9102760836914559
0.5027031550131968
0.2537862806166473
-0.7564894356240137
0.003863624394392016
0.5291058676921864
-0.5329694914645355
-0.4898671287274704
-0.6043055840838741
-0.4229079233062816
-0.6940538531790839
-0.02734273197016956
0.2702277520195597
-0.2428850210382212
-0.9248635002597936
-0.005179002654482034
0.9300425028487941
0.3079658408106601
0.07447670633728329
0.7623995180027963
0.04857118582203232
-0.5330764844934442
-0.06227504491463427
0.04633876984677279
-0.8540092408605422
0.07608540753112353
0.862056875650115
-0.938142283206704
-0.3474043999638295
-0.0412477805856421
0.3886521803569136
-0.6824079987256095
-0.2424555056821526
-0.6313508000074555
0.7074362095096309
0.6090989571355114
0.2185405511903613
-0.5428709855216559
0.9462067741058016
-0.7794246200551578
-0.1667821541004376
0.0224104511406206
-0.01514879136435768
-0.007261659120975781
-0.4029279625355084
-0.09467417439284559
-0.2417867601281654
0.8508857223643499
0.04653487103335151
0.3347581245384584
-0.3812929960873239
-0.4604401679743346
0.9631433275925567
0.6800903307536378
-0.7826959407335494
0.3188160941848406
-0.01651899645646154
-0.3022970980197358
0.9306723843848457
-0.930672384404428
-0.7830366022329187
0.1109460398031182
-0.3227241516356017
-0.750052259648509
0.7599914537709375
-0.09054109413830594
-0.1427624156733238
0.2333035090556429
0.86497264317571
-0.03953833857031727
1.054366535782726
-0.8005802484528839
0.1860072836880497
-0.3155457495940683
0.1295384661331301
0.8593146091093411
-0.09691508997214146
-0.6117872416300457
-0.03935981436721927
0.6511470559619899
0.1238560226727176
-0.2311096045305353
0.1072535830870085
0.8056538262038575
-0.9830589499637262
-0.4352915347543078
0.329578907473649
0.1057126278983161
0.5316476119658673
-0.5562260349221256
1.022126094797746
-0.4562652804397562
-0.5658608143759392
0.5992181725255201
-0.7193298523128654
0.06671754164009085
0.6526123102975153
0.1028251795868026
0.5705255990065837
0.05473340381322649
-0.6252590026566752
0.1942944808699656
-0.08334843918266352
-0.4931566937213475
0.1457522944352346
0.05036815195859702
-0.8868439977204746
0.8364758458394256
-0.4744516411874689
-0.7134585614838762
0.04913561983235741
0.4365865682218372
-0.006264263757446682
0.2999082438863402
-0.855256258472476
0.5553480147815003
0.4157165518897274
0.5842834481929456
0.5605722408790966
-0.5142334662978942
-0.3653509606327137
0.03516006833502319
0.3301908892146735
0.6813635747880303
0.2493088090737597
-0.5664416988125742
0.570305323905397
0.1106430427731064
0.8749876317906904
0.0102662087831907
-0.6220534524502479
-0.7493277918586498
0.7996959451793144
0.5311657795275418
0.07140012413089525
0.3013102035516669
-0.3727103274552063
-0.1676203339872439
0.4419329971448122
0.08717286082020595
0.8757912970650996
-0.7974238029808334
-0.0783674940045372
0.6354960988714446
0.310710674016108
-0.4302706939675408
0.5755307092660475
-0.5041305847036802
0.4171616967169876
0.1331958017962659
-0.04691190230840261
-0.589512836714306
-0.1381844019434
0.7276972386644553
-0.1496893715402975
-0.7809830158920694
-0.6110434225450466
0.3606759484463382
0.2503674728764917
0.6222935787303109
-0.6120273695370956
0.2384143892717359
1.011498802283499
0.04286773455473179
-0.749327789282474
0.221933900273534
-0.1995234534993982
0.6800903293075821
0.8021431671429099
-0.8021431672199693
0.8377083743629709
-0.8333267568632208
-0.004381617418465624
-0.4453781685078679
0.8610947200733211
-0.1476417159325475
-0.345514980554106
0.7347196307504201
-0.6684742329120894
-0.06624539790963156
-0.7316277147007044
0.1421148780783944
0.1387477570449485
-0.6718242414593907
0.7826959283778229
-0.95031626242776
-0.3649446927513352
0.2888349431453773
0.07610974806611115
0.145910872744242
-1.009540760217399
0.8636298875043343
0.4807800730043619
-0.04131397252059728
-0.3081772048213901
0.5864415691596231
-0.2782643641903428
-0.7383089876225233
0.884219858714217
-0.1571310427371002
0.7347151603338384
-0.838681199881349
0.1039660395489582
0.9779700879314693
-0.5418903938684024
-0.4360796941440143
0.7552312672426837
-0.06487021262272039
-0.03477330082725176
0.187903649611526
-0.1531303492734963
-0.7757336034193638
-0.8455526071969011
0.07891949756494927
-0.7500522602455245
0.5140886621823987
-0.5553364461233536
0.08993885200644129
0.7189213551261016
-0.8088602069866598
0.7537093940638125
0.1742207689218677
0.5028778686360389
0.4971221313385001
-0.05222576047755671
-0.6057818488629115
0.6580076099141593
0.8803378196800655
-0.004546519197477662
-0.7552312672245597
0.7996959452091548
0.1910708385510563
-0.4479396077098369
0.01989366307128338
0.001154317643799871
-0.02104797643944052
0.5893204839743343
-0.4384124481397608
-0.1509080353090918
0.7179489568387629
0.01413553153914544
-0.1108374459306584
0.4375418619394579
0.1517786232629817
-0.01358012971270294
-0.006229556717038251
0.01980968575685126
-0.03378205857864187
-0.0009912492185625019
0.2433926353105945
-0.2599116219813449
-0.9592742103444261
0.001958038800533863
-0.1595782651453505
-0.1215520615447344
0.09466899257403831
0.721356574025117
0.7290271859777973
-0.1447437380705494
0.6609437587758666
-0.5710049081349539
-0.2118511323893214
0.3978584160163609
0.6954412535055531
0.02250770330620761
0.2416117872131719
-1.074938541992159
-0.9503162641275303
0.3017015795790308
0.7599914515984898
-0.2087057524092125
0.06594333906915802
-0.7233146138981096
0.9095441647760351
-0.1862295508739798
0.4163010849696606
-0.02764891125544851
0.7716056356786402
0.2806701485342802
0.3722923260791018
0.07346974070204756
-0.6586932888248646
0.6586932888037115
0.2147490454355795
0.6955270400588648
-0.05490846817565593
0.3896665980359018
0.3799613080763561
-0.0138085074426804
0.03370215810333968
0.4493971866828085
0.03138288329772704
-0.7383089881554292
0.5341218088949501
0.2005978242282837
0.3057564371003236
-0.1178527874409185
-0.6954412547579196
0.179894868485947
0.7296492970242233
-0.01023362645212439
-0.8136680109870714
0.8239016374252905
0.6962864599299577
-0.7920775573293718
0.09579109746132906
-0.7537094011369898
-0.1502921747111512
0.2112981682203607
-0.06100599443951971
0.07728436905489394
-0.1795659236975362
-0.1127395735873218
0.2923054984416746
-0.006984940076258885
-0.006595197699265416
0.7065919070140496
-0.7168255410518781
0.8847533492315744
0.07680945877732968
-0.3159538207401492
-0.5172365260229432
0.8331903466065677
0.1034007942929212
-0.1034007915117309
0.3239950161692493
0.4747555705241254
0.6158199929684292
-1.090575563429733
-0.1941306406561826
-0.5856722673448197
0.7798029080194466
0.01317105091108726
0.2201324653826493
0.3771770697756552
-0.2533210352722572
1.013095869672295
-0.5383402956357237
0.6646561725700382
0.9946022525668698
-0.3787822560515202
0.2295353505207431
0.8842198570951194
0.7127565262699826
0.213701061030316
0.7277236184493385
-0.7809830164635581
0.3413067241226083
-0.2761385303892326
0.2446697528999238
0.03146877604439988
0.8473599471737632
-0.01082933460024064
-0.8365306123180797
-0.7021577653263127
0.7025224884317643
0.5546218334647521
-0.7021577638622195
-0.7127565262793347
0.7025224899979515
-0.03479407770669855
0.9056005196175559
-0.02084717368060885
-0.6813635646364837
0.6123608863524757
0.06900267827560053
0.5387874528393631
0.5369704874919635
-1.075757940315006
0.4917604633123045
0.5213354075235396
0.5427588285625772
0.4595274371700991
-1.002286265675386
0.4978556150646622
0.4967466388479268
0.6123608793188569
-0.5255463367265123
-0.4651060245071978
-0.5564807030467068
-0.5192677122639936
-0.1197598482030712
-0.01220601091414117
0.01220600985281423
0.5128640615460671
0.522986517584851
-1.042254229731446
0.5752291606433868
-0.27391895786489
-0.8855050314875381
0.3436146370956399
-0.6330334024191484
0.3905778953343561
0.002434733114429262
-0.8298524985893881
0.8274177654028081
0.4208499734878421
-0.01733143248136687
0.8646913792794959
-0.947304615967955
-0.8342976930507258
0.05462445921697178
0.7796732337220189
0.5632616651594528
-0.438626070144131
-0.1246355949500879
0.6500219478371188
-0.7289073632632
0.8854930440153294
-0.8325351773286147
-0.05295786692864637
-0.009287525738411774
-0.7881362740685065
-0.1096550029807548
0.7139633261282506
-0.604308323139752
-0.9359879474788385
0.9267004220384172
-0.7283085502131488
0.6918281935441251
0.03648035662636694
-0.810292365006661
0.03888748644753359
0.7714048784669205
0.06168591854110435
0.04171487240702
0.433104044335549
0.0618115601931938
-0.851392014916839
0.7895804548358842
-0.6427624852497765
0.5905367271005929
0.890178263854789
0.07003098138617751
-0.9602092452007334
0.05588056787135381
-0.04743912976745632
0.3776300232989136
-0.3813390934179665
0.06579334649771222
0.8423360319782927
-0.8399012962225979
-0.7334829117826446
-0.8110484244642342
0.02291215061622441
-0.1638488530901832
-0.8528663998154189
0.02033122817216777
0.624342510189175
0.03660124729850212
0.03218354688627229
0.5310781229369
-0.8064145053536458
0.8453019883097938
0.5658608130658684
-0.8471839275808957
-0.8659569680418526
0.03964354772320468
-0.03726477876854941
0.8380950393948111
-0.8008302606841063
-0.02544862817532386
-0.7707476921675463
0.5443518410458296
0.1519346145671057
-0.03168053272688976
0.8963719126040484
0.9813248796666263
0.862060690415873
-0.8417294598052456
0.1474859902224012
-0.1474859885874888
-0.1186841755721924
-0.4825521485003624
0.04392608127395742
0.2706499467076614
0.03105163251707218
0.3864278616814624
0.8709232829598602
0.004054199139902546
-0.01103914811632045
0.6586102295125659
0.3413897704689078
0.7835480072003966
-0.5833884109494626
-0.7780725460874154
-0.8116595984719797
-0.6798408642981366
0.6798408642895816
-0.1677419301925352
-0.1549822245509574
0.6017943186331909
-0.8122333900209798
0.2104390713579306
-0.4937258367860882
-0.5690139937147812
0.2782111976806977
-0.9722650504438316
-0.9019011865894576
0.8489433270544867
-0.8143240879825756
0.8372362378743279
0.6487274222279171
0.1343296624676721
-0.7830570846727696
-0.7751792407180041
-0.1459314471088974
0.7242479746019641
-0.5783165274530182
0.03097790081222976
-0.01492975669462438
0.01848821702758965
-0.003558461516573465
-0.3552949585833109
-0.1272571946521451
0.880005513825193
0.7438760298759477
-0.2453669081052077
-0.4985091212128941
0.6192404295502082
0.685279019581474
-0.4705299726885324
-0.000655119172062007
-0.2850944909236534
0.02565711601696513
0.7460857588247483
-0.7717428750367824
-0.323537630472897
-0.07245715933326469
0.07567621470964721
-0.9601178211501883
0.123587207435821
-0.6779037313411425
0.05169546466985458
0.6411268784891117
-0.6928223431633698
-0.7567050414135775
0.07880131007081143
0.5880609684059748
-0.6605181278277862
0.1567799176556873
-0.3363458399874499
-0.7706707424351299
-0.004508498230288422
0.3712275913467321
0.6014646724682489
-0.02593396633660155
0.02309055127867123
-0.02309055074280679
-0.01843557992462239
-0.05054813650848956
-0.225590399709005
0.02306108992258506
-0.01900686279693305
-0.734069492384698
0.2793003782026123
0.6802114188054317
-0.6896980733353834
0.009486654336882852
-0.5967380472056558
0.6484335166605821
0.6530305973380427
-0.06496963090680016
-0.6316103075157682
-0.1250947307111517
-1.050206541324298
0.01109245991783114
0.136393528021734
-0.7084123747729247
-0.741265304929982
-0.7631530454008597
0.3654126935424747
-0.4127995783541848
0.4667945082713927
-0.05399493033697814
-0.6724551417970781
-0.03595723307318353
0.5015555646658367
0.7306800807934748
-0.2333941523703676
0.111842090100434
0.9646263163772761
0.4460013594349996
0.1343144716322665
-0.5803158309880516
-0.6781259078602494
0.005670764404263946
-0.04456284724567715
0.02963310032460131
0.6367034761035141
-0.7748878776197029
-0.002140588167545779
0.002140588332093274
-0.6009212271324179
0.6481614645220882
-0.04724023728001191
-0.6459423576895411
-0.1131311033165651
-0.6715818179256902
0.05313623130200895
0.6048713839210401
-0.1371211221023479
-0.8175132649999824
-0.5581621187444747
0.5656505310421081
-0.007488412236932944
0.633319711720946
-0.6238330523961705
0.3223227346539075
0.214209310884246
-0.5365320455409925
-0.1045618304894305
-0.6021399348401635
-0.09068240666647782
-0.1549198714328227
-0.505025883436707
0.4041232275604164
-0.498797400238272
0.1267264222544136
0.6782826152388828
-0.8050090375549781
0.5992181725299069
-0.3693691440300285
-0.04343043041136632
0.07876862943565457
-0.5837945094943975
0.5518503668988031
-0.04050050884835227
-0.5113498578986121
-0.3123418392699118
0.304875223766297
0.007466614545982008
0.4541693246059023
0.1210598360300324
0.05089066212483555
-0.3158832211213707
0.1567821748148785
0.1591010461132815
0.2333386244191964
-0.01140471748812691
-0.2948500547521861
-0.3121072479840626
0.3627833732693663
-0.05067612737507103
0.7882433814271778
-0.6272267535763179
-0.01871560379268842
0.4993338370350646
0.2805562427652666
-0.5259231530681761
0.5775006958236677
-0.5775006958250111
-0.2897478177127661
-0.5864580666168836
-0.2955600821784524
-0.5864580664231307
-0.5947965564451639
-0.8385119280774873
0.1700376986791159
-0.5833006814933938
0.8211468692489394
-0.003486076715612815
0.1190717971951222
0.4823928739431223
0.09670191809989907
0.1854684076253337
-0.03632294595847662
-0.1491454631087115
-0.017650140092081
0.5942034811856983
-0.9462602331498515
0.4290237108132412
-0.001715874060726156
0.002565948427696876
-0.000850075426149433
-0.6432861576672864
-0.1317154926983752
-0.4669878113772305
0.6013022812876671
-0.5037567065775839
-0.3238611563983076
-0.2599333690498598
-0.2712454611810237
-0.1119978832253845
0.1119978828498725
0.1525236086784163
0.05877455469170498
0.1965608646503372
0.4553897981755225
-0.5732411206199405
0.1062533126759782
0.2429538757731901
0.4662409457739394
0.5337590534421507
0.6414273951629166
0.08516495512108327
-0.003921584168564644
-0.08124337391041846
-0.276857521282075
-0.54065574363339
-0.5502710799577937
0.1141454845597367
-0.126111804843634
0.01196631979224195
-0.1058317995736921
-0.3860154884663247
-0.04468935181136856
0.6495607167665666
-0.4986628850859796
-0.1446232726301346
-0.3390099483873973
0.2919479315101416
0.123388920887132
-0.6069621418760196
-0.2040648679912513
-0.2617780922090626
0.001866452797423519
-0.4221729583296971
0.3226730173614761
0.09949994055100514
-0.0931951173404075
0.2916229853484966
-0.8959285676665028
-0.458019861437249
0.6319105786176735
-0.7729516040277343
0.6683897734934399
0.3422274682767513
-0.1255596992324776
0.2253718890738475
-0.09981218895635174
0.02460046769898729
-0.586274411816232
0.02928619712719472
0.5569882149831353
-0.9007177731892313
0.5469446447958116
-0.6656288204367208
-0.09731690222498907
0.1093858629764637
-0.1093858598821387
-0.3165383388237054
0.3637246544961126
0.01390537430088258
0.02956296998235544
0.05560199506747616
0.5052318122570943
0.6615518463522637
-0.7399193380255746
0.03071729878690565
0.02365047208029122
-0.0005599131734449225
-0.007052523111644522
0.007052522435821398
-0.416672085886246
0.5377319232032036
0.01525198607855177
-0.01525198622053333
-0.7922289569567557
-0.06061611743536006
0.1223020427166891
-0.455399946369353
0.5616532605861797
0.4510714684557506
-0.4983117095668112
0.149853003651106
-0.1498530025062506
0.03533319907798793
-0.001631043619050698
-0.04164563641364764
-0.9767783610856438
0.5406986654780856
-0.4706670088610026
0.04171487539629067
0.5144645133689265
0.03107084986648577
-0.5455353629877303
-0.6159596113595018
0.1172967255882372
-0.329665371288975
0.01343234558772158
0.3162330264786581
-0.1543900638433573
-0.07900407821838196
-0.5407894626084965
-0.04548495523680833
0.136393526465369
-0.04070552812788766
0.03856494605615327
0.08129027321190878
-0.08129027698622007
-0.5377217637535924
0.4870456473545111
-0.4144311459271547
0.161339196690314
0.6222088104567508
-0.09792295699937496
-0.004602339151391977
0.004602339223142666
0.5329584960744301
-0.07588402106593971
0.005985070775380801
0.02700766322544244
0.03466234162227441
0.6854712829992083
-0.7613553039063131
-0.6565110453927469
0.6377954385289705
-0.1069423810332778
0.3128910980578852
0.7461758189074459
-0.01843558187485192
-0.2672190154757732
0.1493662210335831
-0.7446653457593458
0.4843649002800396
-0.4237822105241353
-0.1014951062282063
0.00356237545348447
-0.01441127514971452
0.01913948829318162
0.4113441885898382
-0.1216425300933429
-0.3897073266227752
0.6288514340440223
0.01925855335115295
0.01071426928508969
-0.01071426921782359
-0.3554637838426837
-0.08233197050506054
-0.5605901211374902
0.5571040446376962
-0.2382992770995863
0.4647990311774411
-0.1510981435767944
0.7287748385472876
0.673004794801389
-0.04070552734821021
-0.6156437322377064
0.562167348622177
0.289191431560295
-0.2868969633788754
-0.002294469398636288
0.5446003177705731
0.09338279974294546
-0.03896202474049772
0.1968308928760313
-0.1578688687419864
0.1202522941661623
-0.1202522972212959
-0.8587618128083547
0.002367018056029941
-0.1132124287862984
0.1402200934017315
-0.1319820449194272
0.1319820442834345
0.02365046613741668
-0.02303791263509647
0.6707087511014433
0.05894054533149577
-0.3231035029978888
-0.06291198602946181
-0.4712264200346287
-0.04981851649691631
-0.1516991151025591
0.1516991139991021
-0.04591018184152185
0.143257002162945
-0.1432570013259176
0.1366530476951641
-0.1366530497756711
-0.3156426207801541
-0.1146280732682227
0.2265759037389711
0.1030030042245148
0.03486018197679187
-0.8211064190320934
-0.1977372342816395
0.1703127061735726
0.02075813787453778
-0.2653930539960634
0.125763193507136
-0.1257631927775938
-0.4140604086769855
-0.08473699372507382
0.2365116803152247
0.002227263646511494
0.04058474423158794
-0.5432214074994173
0.5780154852075942
-0.02674306608042917
-0.01916711791374207
-0.02863840670793847
0.02700736931123731
0.006596015163901779
-0.1842884334230534
0.1776924181596629
-0.10824071911821
-0.2281051219884687
-0.1448072617647475
0.1448072608717036
0.07294770403734878
-0.07294770439912125
-0.01943957087403391
-0.1086726291568805
0.1281122007031578
0.2420656204254197
-0.1828033740298667
-0.02715883829891641
0.02659893450544695
-0.1387206674437708
0.6257663161584572
-0.0390501672876002
0.4229325859173238
-0.04259885061757707
0.06240854452984163
-0.1534559592623484
0.1534559577488072
-0.6363426323314272
0.3089006705898402
-0.07936531983398737
-0.2346749254652303
0.003565324245670382
-0.1218543274138649
0.1624390705115079
0.1950885699763587
0.09721693241230409
0.09595839459157955
-0.06129605268196223
0.07257967080774706
0.0415658148372328
0.06386733800852207
0.106445363666023
-0.09579025240138007
0.2076323260008939
0.01285485257955615
-0.1147971263798906
-0.1011918379357143
0.09776053744200432
0.003431301587562656
0.01293620245846095
-0.02334029009717423
0.03784775136788862
-0.03784775141216939
0.07497656514297793
-0.05479323926520635
0.05479323895895892
-0.2245569191687698
-0.0523885828656172
0.0114528403904089
-0.1030894670365508
0.01640075274489739
0.1083253817433458
-0.1083253812460028
0.2945885093435858
-0.2715634296666862
0.1633227143113212
-0.0507824816758125
-0.2207809478869699
-0.0175421425105827
0.01754214279591702
0.3673492768678828
0.2852630395340809
-0.5274937519123342
-0.09399694092604555
-0.03211486354687855
0.5286884796139181
0.2134272302677324
-0.1700020831331751
-0.3808613294271012
0.07648152348714765
-0.1478046320054782
0.1873499758095328
-0.03954534403420474
-0.06675956175975784
0.06675956204583564
0.8226573423904623
-0.5606664169113538
-0.004559707138541744
0.01749590827754957
-0.01998416977235331
-0.2866977154595541
-0.01749380997419683
-0.01282520916533238
-0.1317938953597022
-0.5720250793184062
0.5559634114834006
-0.5693510173635106
-0.0068918575093832
0.1029905688815196
-0.00175683816262635
0.01680290782378694
-0.1677888019725324
-0.3365917548144191
0.2335022878632969
-0.05453952342752503
0.0350999540270324
0.1317243227762497
0.1731509009005972
0.3366093448442073
0.2766950026925814
-0.278451840380091
-0.06262688701000847
-0.1549733955304769
-0.2212425748023661
0.07484513316449694
-0.01097779614845017
0.2141326049456513
-0.1973296966253603
-0.0862845378867238
0.1588642077359318
-0.3551417076805461
0.2086513482954285
-0.1922505953997093
0.08960122237458888
-0.4793085527838997
0.1745247691849977
0.169899259540792
-0.25618379327396
0.07261810843757112
-0.194315632880494
0.1768218224390634
0.01743780989333059
0.1414263986387531
-0.03954126641780945
0.06617086450779515
0.466787631034098
0.02030560970910383
-0.07729116683889622
0.05536981079202426
0.1258088230798261
-0.2607879163217877
-0.230879132760099
0.5597184264054655
0.1577849159459229
0.07872676391647221
0.07558146026719398
-0.03091396821786496
-0.0104061893291507
0.008111714052467748
-0.03279412877783273
0.171198249901399
-0.1780901069403543
-0.05815167580597292
0.02203922058513187
-0.1467784453828922
-0.05288923182808101
0.1494806609196156
0.2770836442960967
-0.03863386096978619
0.0166011813272374
-0.2557540229786476
-0.1313926616189749
0.2356926065877175
0.1790573960895045
0.1298432744348795
0.02188201366408316
0.08906203723197388
0.05216714658968193
0.4530646656241815
0.01628614825139007
0.09708274818046235
0.04377192579870828
0.07165613197701604
-0.1154280589573494
-0.2422307142950353
-0.2009394040063915
-0.01984154145226763
-0.2022249113818973
0.2755955688999717
)
;

boundaryField
{
    FrontBack
    {
        type            empty;
    }
    Top
    {
        type            calculated;
        value           uniform 0;
    }
    In
    {
        type            calculated;
        value           uniform -1;
    }
    Bottom
    {
        type            calculated;
        value           uniform 0;
    }
    Out
    {
        type            calculated;
        value           nonuniform List<scalar> 10(1.03451929161025 1.064333789955282 1.021586727557874 1.019191021559453 0.9964979258086895 1.016014350992985 1.035850578744921 1.062739830495046 0.8672485092582137 0.8820181487853866);
    }
    circle
    {
        type            calculated;
        value           uniform 0;
    }
}


// ************************************************************************* //
