/*--------------------------------*- C++ -*----------------------------------*\
| =========                 |                                                 |
| \\      /  F ield         | OpenFOAM: The Open Source CFD Toolbox           |
|  \\    /   O peration     | Version:  2412                                  |
|   \\  /    A nd           | Website:  www.openfoam.com                      |
|    \\/     M anipulation  |                                                 |
\*---------------------------------------------------------------------------*/
FoamFile
{
    version     2.0;
    format      ascii;
    arch        "LSB;label=32;scalar=64";
    class       volScalarField;
    location    "1530.5";
    object      yPlus;
}
// * * * * * * * * * * * * * * * * * * * * * * * * * * * * * * * * * * * * * //

dimensions      [0 0 0 0 0 0 0];

internalField   uniform 0;

boundaryField
{
    FrontBack
    {
        type            empty;
    }
    Top
    {
        type            calculated;
        value           nonuniform List<scalar> 
15
(
142.2783517534389
133.5788700290648
138.0704871379224
144.40885815964
159.7727545556384
131.3688631381324
140.1309763277544
135.3616959650413
153.4392911383302
135.7424652977882
136.0966979121805
136.7698848798539
125.2526924496483
132.9060623110737
123.9480167699221
)
;
    }
    In
    {
        type            calculated;
        value           uniform 0;
    }
    Bottom
    {
        type            calculated;
        value           nonuniform List<scalar> 
15
(
155.5651907915213
158.1151216495052
141.0853772394308
142.057496158024
141.1799755246699
148.4340841872482
142.700711994893
143.1598529660288
143.4237361722815
134.0548100709336
125.7295286906454
141.5516314821223
122.4098204497576
123.4907891815971
124.1358337069408
)
;
    }
    Out
    {
        type            calculated;
        value           uniform 0;
    }
    circle
    {
        type            calculated;
        value           nonuniform List<scalar> 
32
(
56.34962485592222
22.22551940246157
65.33442351267298
23.46185297867792
19.07572759366796
56.1491495953743
56.81254709074679
24.10185056513465
22.38953751043591
65.55739029550912
40.16295942307666
63.0590280749342
50.30825664787086
13.67333196950877
23.77986962036204
18.5982486617128
38.89974237816069
59.58591405340088
60.98600034875334
24.5677962267173
65.70177393108224
63.84112492209866
62.93958504381364
59.94571578281047
64.07908029445478
45.92402167727617
66.34491905483124
32.0307317986746
38.04548982271107
55.77909921159657
20.99478234353383
43.18292313695475
)
;
    }
}


// ************************************************************************* //
