/*--------------------------------*- C++ -*----------------------------------*\
| =========                 |                                                 |
| \\      /  F ield         | OpenFOAM: The Open Source CFD Toolbox           |
|  \\    /   O peration     | Version:  2412                                  |
|   \\  /    A nd           | Website:  www.openfoam.com                      |
|    \\/     M anipulation  |                                                 |
\*---------------------------------------------------------------------------*/
FoamFile
{
    version     2.0;
    format      ascii;
    arch        "LSB;label=32;scalar=64";
    class       surfaceScalarField;
    location    "508.5";
    object      phi;
}
// * * * * * * * * * * * * * * * * * * * * * * * * * * * * * * * * * * * * * //

dimensions      [0 3 -1 0 0 0 0];

oriented        oriented;

internalField   nonuniform List<scalar> 
1171
(
-0.9279089184146839
0.9279089183743646
0.7874238913620754
-1.099247172046995
0.31182328084991
-0.1896689377505871
-0.7659344325953912
0.9556033703250322
0.0720910784161503
-0.1173419001579948
-0.2124147847790827
0.3297566844086202
-0.7874238815027295
0.0694162980429853
0.7180075834726792
0.8113855737182879
-0.1779888742874148
-0.6333966994962914
0.8740547683097367
-1.044189454597328
0.1701346863289361
-0.2854253158185999
-0.09792289453822411
0.383348210709899
-0.03647136502965493
0.5489734577044215
-0.5125020927608899
-0.5066232626377762
0.8264278676276314
-0.3198046049362931
-0.4027672110928525
1.04578989529622
-0.1717351271408033
0.3920897467571651
0.05017589945335867
-0.442265647268267
1.04592866846253
-0.0001387728898560231
0.4439786338019623
-0.0518888895707658
1.056461796274332
-0.01053313122046155
0.580345503523953
-0.7700144355893143
-0.7241006686690981
0.556587234667955
0.1675134339346585
0.2143656586569663
-0.7209889279115119
0.5499972487232978
-0.9226006313519568
0.3726033818565409
-1.09421526640219
0.6866114336785911
0.4076038328199378
-0.5955982690177547
0.5591269101957367
0.0172881061729489
-0.2558684454982585
0.2385803383751586
-0.02251050224778989
-0.5234730131495196
0.54598351511107
0.4003762737143635
-0.4982991624432714
-0.9189658705171251
0.9416718615954327
-0.0227059910554248
1.067716974771237
-0.01125518029653379
0.934860979137611
-1.116669847852686
0.1818088686419678
1.067167488882666
0.0005494817616728811
-0.6644070916262964
-0.05969357594909228
1.262232572992582
-0.8643130766491589
-0.3979194963453519
0.1482016134933575
-0.1099472797862425
-0.3257146181359483
0.4356618982154482
-0.28550623019491
0.1918764965191926
0.09362973412169598
-0.5836900621735523
-0.5155571143569341
1.014074585662189
-0.07921360708017977
0.009879372935622922
0.825499407512357
-0.8353787804069414
0.5717381544757526
0.6904944208080701
0.4390261815683794
-0.03087749319559879
0.4312537666059412
-0.8080648734882402
-0.1025266522201164
0.9105915256321453
0.5020747383746319
0.2539942589940447
-0.756068997377626
0.006798238402543521
0.5291057798943491
-0.5359040188165762
-0.4900006887278299
-0.604214579847748
-0.4227524346447302
-0.6939174128324834
-0.02720876321948703
0.2706453610670233
-0.2434365970297847
-0.9247571011536272
-0.005096201114428923
0.9298533023219241
0.3086115837270479
0.07473663353499123
0.7615872979865326
0.04979827150784617
-0.5330000440402966
-0.06259822298087152
0.04599426392821526
-0.8540591384097939
0.07597420489391223
0.8632308602609026
-0.9392050651367558
-0.3468265019093821
-0.04093270938166894
0.3877592114362782
-0.6820515225891948
-0.2427055748606294
-0.6343845600608925
0.7103587629148991
0.614414915531608
0.2120129457535585
-0.5433795797940761
0.9456421058818846
-0.7789393835354499
-0.1667027223137513
0.01075954602462876
-0.008348277411316669
-0.002411268550456938
-0.4034872391079603
-0.09481192354093276
-0.2410453472779898
0.8554602576300065
0.0481929473555729
0.3344070731331076
-0.3826000200777364
-0.4613964453187138
0.9634711796822379
0.6804608741437584
-0.7829875286549108
0.319716774714112
-0.01596888055065851
-0.3037478942046649
0.9307288793977375
-0.930728879381556
-0.781201060607407
0.1110080282136562
-0.3234228092187388
-0.749927550563831
0.7598069252643358
-0.09058068395166255
-0.1433577138776495
0.2339383984412574
0.8649037768417404
-0.03940436648860571
1.054444518514027
-0.8004502657298961
0.1866993148959514
-0.3162787864672683
0.1295794714040632
0.8585152047447426
-0.09692790761213872
-0.611404002103632
-0.03907386483262097
0.6504778669695412
0.1234370568499891
-0.2304831146501227
0.1070460567613594
0.8055831393544682
-0.9835720167946601
-0.4343942621226627
0.3291789404837913
0.1052153211473946
0.5331778925352666
-0.5556883976536767
1.021910929159026
-0.4562020341384625
-0.5657088950095082
0.5991584933015616
-0.7193262883109014
0.06659512943904737
0.652731159191224
0.1024462023654115
0.569565697242265
0.05531996341447765
-0.6248856607730459
0.194668785470047
-0.08366075748015935
-0.4922199381719861
0.1453934351851931
0.05024051380095986
-0.8864383004892593
0.8361977866174286
-0.4732971089904896
-0.7132182764283438
0.0488111862267058
0.4371967464041784
-0.00594297662614937
0.3000136037578081
-0.8552756882265609
0.5552620842945103
0.4157564020972654
0.5842435978350503
0.5605153925082731
-0.5145211333723849
-0.3679097269826819
0.03917890793818807
0.3287308215984576
0.6812770331738567
0.249451846637961
-0.5667992431144029
0.5735974817274684
0.1114821283858331
0.8749994304124291
0.01019493323042156
-0.6215989336268624
-0.7490696556409936
0.7993101683854366
0.5304918366855784
0.07000155582114442
0.3013642759095407
-0.3713658319210786
-0.1674477069926167
0.44482183396983
0.08428395492726481
0.8747020590053424
-0.8049965237149973
-0.06970553536083691
0.6353234611531976
0.3103186461381674
-0.4306960029626305
0.5736961809644966
-0.503694625365497
0.4171061607811819
0.1328910832716681
-0.04672805942792271
-0.5933271340088636
-0.1386325799746521
0.7319597140012847
-0.1497615137606014
-0.7809673628451699
-0.6110061820449466
0.3602855365011463
0.2507206465394792
0.6219253397090784
-0.6117304069656854
0.2391759978370218
1.011467012768873
0.04297750503748154
-0.7490696577870747
0.232153454044024
-0.221393905550984
0.6804608754776837
0.8017518088644684
-0.801751808804546
0.8376271166870396
-0.8330916920678429
-0.004535424687018975
-0.4453501601189577
0.861106562205548
-0.1472854271320551
-0.3449345088497484
0.7347506912360828
-0.668548264753721
-0.06620242642206924
-0.7359293483466988
0.1426022151480656
0.1390557391942714
-0.6720557831179319
0.7829875406440193
-0.9504352475867449
-0.3686528224428655
0.2891526903949408
0.07950013366665994
0.1457662308777294
-1.010099071848753
0.8643328409471162
0.48108729612289
-0.0420611144859799
-0.3080869085294506
0.5862989108674306
-0.2782120024622204
-0.7386063384315207
0.8843725710348584
-0.157014042232486
0.7311328156269842
-0.8413674519570287
0.1102346363068207
0.9763179848963217
-0.5391977809058904
-0.4371202039263986
0.7550237473508976
-0.06501169667457023
-0.03309803149934588
0.1846185775231982
-0.1515205455259376
-0.7758165020758857
-0.8399197600357462
0.07398533368030968
-0.7499275502084851
0.5136847112719997
-0.5546174179095391
0.1003528118526847
0.7173344649781829
-0.8176872769640087
0.753605094449347
0.1743038062800462
0.5029271023971579
0.4970728976261295
-0.05253703649746536
-0.6125008011979584
0.665037837349806
0.8825561898240719
-0.007854134031307665
-0.7550237473641991
0.7993101685607329
0.1915769232630023
-0.4474453717842889
0.013711838776289
0.003810530165359216
-0.01752237240111646
0.5886662766705839
-0.4374373079049688
-0.1512289691844187
0.7180075774881712
0.01007948995984974
-0.108786945022452
0.4381560065150066
0.150510268786898
-0.01644841153629746
-0.006750096425823296
0.02319850808148747
-0.03095040943886685
-0.002147619657416752
0.2456295724870327
-0.2615984634785744
-0.9587658507233123
0.001367944518803136
-0.1594556821517635
-0.1230232479217859
0.09447452711445894
0.7224258265502018
0.7289679130808808
-0.1447243149655618
0.6747201780134677
-0.5743673644548768
-0.2118321144865603
0.3985314301066797
0.6956288322937983
0.02237874521399074
0.2418278082736146
-1.074919502061312
-0.9504352460250033
0.3026686034919732
0.7598069270660444
-0.2092425124847422
0.06588479550128667
-0.7237937702836772
0.9110340651290503
-0.1872402948545088
0.4155484924999372
-0.02778927537632967
0.7711860878988691
0.280673710458318
0.3762143902574978
0.06776425347070056
-0.6587088159948113
0.6587088160124258
0.2146907621317344
0.6959007613360422
-0.05642258414099352
0.390829654348716
0.3792393111486489
-0.01462374084844385
0.02833559066844839
0.4483746566310726
0.03271264215263392
-0.7386063378138017
0.5339887006233826
0.2007619884691929
0.3005911285316853
-0.1159725533134503
-0.6956288314573132
0.179856613453237
0.7311774513335592
-0.01018846335967181
-0.8136428327156733
0.8238312960907381
0.6964009517023574
-0.7919868925960887
0.09558594084081355
-0.7536050876041911
-0.1503486430449291
0.2118086357009704
-0.06145999190332014
0.07739936613762763
-0.1786806671420014
-0.1123992659289226
0.2910799321676191
-0.008317504173642472
-0.00813090213146319
0.7063015201545436
-0.7164899763072802
0.8868910550465523
0.06871232039982701
-0.31086367858311
-0.5233186435306144
0.8341823222512106
0.1032186925521824
-0.1032186948212436
0.3283315923097544
0.4772515398574714
0.609684770889145
-1.086936310808533
-0.1940980284942421
-0.5855320128772921
0.779630041356055
0.01269612807418218
0.2212422635254402
0.376316318896963
-0.2528792736860917
1.015745347184689
-0.5384938106121314
0.6682199620980941
0.9923143074487316
-0.3826295398259226
0.2290308956151218
0.8843725727524409
0.7126374443522607
0.213878691688148
0.7277931664505516
-0.7809673623272398
0.3412911719114369
-0.2847674526134461
0.2603284801157221
0.02443897422805913
0.85112673448256
-0.00607553305332618
-0.8450512016414659
-0.7021043091339337
0.702653788659644
0.5546498379282447
-0.7021043107630753
-0.7126374443448448
0.7026537868811773
-0.03362135771884336
0.9075348371013244
-0.02064377884517356
-0.6812770427299953
0.6122364141893557
0.06904062854846335
0.5386195773977985
0.538489970891348
-1.077109548303174
0.4875154170764739
0.5282299290467363
0.5483697465475479
0.4576775229303713
-1.006047269528574
0.4933079079150207
0.4990063983349459
0.6122364208214115
-0.5256943039966423
-0.46668757017667
-0.5559974375623462
-0.5140418028360554
-0.1240329825212093
-0.01282745755471215
0.01282745833679547
0.5096304165293223
0.5245550778564497
-1.038596880797358
0.5722304033246299
-0.2708661264154846
-0.882956073949601
0.3437582935666227
-0.6327488757323786
0.3900433022374012
-8.517431225140958e-05
-0.826548640211878
0.8266338145806114
0.4208810116128077
-0.02507169808489808
0.8761984332344481
-0.9452482431893907
-0.8340078557085115
0.05668951120737623
0.7773183445924852
0.5538248977306517
-0.4375700521071356
-0.1162548456340262
0.6501833677634148
-0.729396974353241
0.8862431942329951
-0.8268879109186058
-0.05935528310265188
-0.0145424376678478
-0.7904540889989649
-0.1112872433144202
0.7141936214766036
-0.6029063781712743
-0.9414974936755761
0.9269550557683416
-0.7329493142916729
0.6882259011246989
0.0447234132023383
-0.8012475122963071
0.02785435107391499
0.7733931613145267
0.06189832724575711
0.04132036753847527
0.4329046876240826
0.05900506090939802
-0.850008520413842
0.7910034594053211
-0.6458135235690777
0.5932764838785825
0.8890533187524968
0.073564709286463
-0.9626180280760809
0.05504546574389167
-0.05050541053236833
0.3792362269232326
-0.381836585292152
0.06555779662839871
0.8405025917787257
-0.8405877687804851
-0.7325351862460018
-0.8129952212745198
0.02254113205679408
-0.1676789680126142
-0.8477878194434753
0.02089990281210032
0.6227146780030404
0.05200550186667027
0.01894096533163157
0.5348839267643899
-0.8158450421721448
0.8436993967090523
0.5657088963461787
-0.8516203420488309
-0.8679327826245948
0.03960205815182134
-0.02967605018587241
0.8338758890703877
-0.8041998388445253
-0.02115401144949253
-0.7622112343782995
0.5442829996102454
0.1521179559998485
-0.01803084853738769
0.89422928114362
0.9836445684050138
0.8612637117748867
-0.8403638114031582
0.1477705526852954
-0.1477705540794678
-0.1175323893922207
-0.4642490267239992
0.02667897146326125
0.2711178970749883
0.03155070675194389
0.3862938741530019
0.8730752713879826
0.007938283997681667
-0.01625578082442773
0.658593504055466
0.3414064959633616
0.7836008222366344
-0.583690064196791
-0.7780715189718281
-0.8102753681283207
-0.6799477912604565
0.6799477912677658
-0.168237170552566
-0.1551856347721969
0.6020494613490617
-0.811278729213725
0.2092292678925722
-0.4940623801618929
-0.5688403823829693
0.2779999161880607
-0.9719173294005572
-0.8985882822605238
0.8392329916718559
-0.8181863828548791
0.8407275157100335
0.6484893231653892
0.1343868294614389
-0.7828761526445553
-0.7655519555015847
-0.146435856430994
0.7253571515530732
-0.5789212951516062
0.02551301364514543
-0.01200366403404816
0.01552080969543247
-0.003517144722868491
-0.3523227015267778
-0.1119263217417834
0.8800493798307701
0.7410503487717325
-0.2397879387264274
-0.5012624105743171
0.6247955067554117
0.6857599868254721
-0.4710692261265557
-6.269357786933133e-05
-0.2854435379683944
0.01180006041395892
0.7490063820817886
-0.7608064423074028
-0.3234280042061096
-0.07221604289466879
0.07624740260943029
-0.9677272162508387
0.1226760163306824
-0.676891896175466
0.05439716052511612
0.6398408762286508
-0.6942380367784926
-0.7563033688315658
0.07941147265895182
0.5893752638125567
-0.6615913066243059
0.1566767472636878
-0.3353574151175867
-0.772259852596674
0.006707897046519563
0.3711058739785981
0.5997650811248372
-0.02606889732490683
0.02026654848726694
-0.02026654931248753
-0.01957754209105528
-0.05136232805081674
-0.2334051172234863
0.02369602564856143
-0.01575776516964141
-0.7202543533939771
0.2793717613764206
0.6787548615405434
-0.6896391395192654
0.01088427817983167
-0.5954999473747131
0.6498971033001142
0.6546161102240026
-0.06524084506298823
-0.6307674951030279
-0.1255358767349219
-1.050059816303756
0.01119392841820986
0.1365766274950667
-0.7084542939146489
-0.7420547429629037
-0.7639874564245326
0.3660679618348092
-0.4054580738713748
0.4644511065513153
-0.05899303252942876
-0.6691739507929695
-0.0392803430717986
0.4999266490457359
0.7306845894277302
-0.2355219757289685
0.1124987286672069
0.9610193219761384
0.4464912009464133
0.1321380781920202
-0.5786292792012397
-0.6769087681713122
0.007734819594024131
-0.04445786773641636
0.03245419141962914
0.6372690244443938
-0.7759016044805869
-0.002501916485106593
0.002501916294045385
-0.6002766210750375
0.6497417659435603
-0.04946514494383816
-0.6579678055516427
-0.113804083200959
-0.6717487447644404
0.05709738830406366
0.607940444350445
-0.1376525197421768
-0.8181846013479944
-0.5697878418525122
0.5721468546369074
-0.002359012581845165
0.6296096546382084
-0.6187253806245668
0.3224302235658908
0.2136008283603533
-0.5360310519261394
-0.1047857169941494
-0.6022775898058053
-0.09196044831458879
-0.1537854162162852
-0.5126904576233948
0.4043238407738445
-0.4991357662149687
0.1261598294834419
0.6787558227811141
-0.8049156522157549
0.5991584932959547
-0.3730995781405512
-0.03235849995875693
0.0638754728807966
-0.576565932772078
0.5513558818902736
-0.04041617392462239
-0.5109397080892742
-0.3130159532291488
0.3056619827990023
0.007353971273337405
0.4512157334783076
0.1210146695203326
0.05233852058457202
-0.3164494592146909
0.1574679227684145
0.1589815366171007
0.2482810063141415
-0.01612755615734334
-0.2956885080009434
-0.3121564851982551
0.3546817109835925
-0.04252522393889317
0.7908959768809418
-0.628273887114066
-0.02969391873123738
0.4994333353266108
0.2854889253313102
-0.5252768636423066
0.5774480246671186
-0.5774480246668005
-0.2897793188719489
-0.5865040457965338
-0.2955426050227278
-0.5865040459904153
-0.5965500617406063
-0.838479367735343
0.1699311000679
-0.6015949080242177
0.8211900059902845
-0.003261537664253268
0.1182459057954028
0.4815191768231719
0.096770811487426
0.1858305423623975
-0.03628804955648338
-0.1495424916460363
-0.02944806257766485
0.5901606367447252
-0.9424396333849512
0.4191209862954452
-0.006576066962269186
0.000916271291281573
0.00565979646742166
-0.6441621408006069
-0.1321218515758593
-0.466832880272329
0.5989709605948583
-0.503504391299111
-0.3179795265781354
-0.2585863920575102
-0.2721971907130653
-0.1114935733010421
0.1114935736553969
0.1535835812619796
0.058225057146287
0.1970244740057963
0.4483235424404483
-0.5694616409698763
0.102628757081748
0.2537524130042504
0.4663931840821773
0.5336068165616199
0.6456149998438702
0.08330822676161585
0.001360118857876027
-0.0846683442313878
-0.2771144567201653
-0.5410701446945521
-0.5464407910035711
0.1148100508337494
-0.1266447852451997
0.01183473482764438
-0.1056377277006983
-0.3853506831152678
-0.05011504770838175
0.6580555092472398
-0.4994722959179409
-0.1446898448394622
-0.3263278027365824
0.2859673884494848
0.1290533312456534
-0.6136477062532261
-0.2045252277696832
-0.2629577117824202
0.001359264386172729
-0.4209962775823277
0.3227868395941253
0.09820943831089216
-0.0913792807377813
0.2917264188236614
-0.8959410004227762
-0.4573722234495838
0.6286074442825631
-0.7732303534157876
0.6684446364620727
0.3403242426389273
-0.125109542025682
0.2242156151534831
-0.09910607386131011
0.03117171911397017
-0.5861944040090852
0.0287373774405545
0.5574570263262036
-0.9006156954012547
0.5477817341183501
-0.6653141234718913
-0.1032066454781996
0.1094218817560483
-0.1094218843211663
-0.3165121542837945
0.3589072328671641
0.02032898900996924
0.02259456612389102
0.06071364754258496
0.5044229401332849
0.6678153305043441
-0.7375208680327495
0.02640508809992797
0.01977453862708409
0.0004920039810501581
-0.00648647503751479
0.00648647570388477
-0.4099584504395483
0.5309731182605955
0.01574626068949178
-0.01574626056917163
-0.7926715738464023
-0.06038018688511425
0.1222785080083262
-0.4524401077976056
0.5550688628629956
0.4504404273266949
-0.4999055685331212
0.1502057728859034
-0.1502057738864966
0.04140439477144267
-0.01306879997564379
-0.04171543782247748
-0.9757904338452015
0.5386702313058913
-0.4689514877764313
0.0413203655280974
0.5151908023872018
0.03047643933778566
-0.5456672419229394
-0.6164267727201512
0.1169544773363167
-0.3291597857285212
0.01360149087901954
0.3155582941755745
-0.1549428450365178
-0.08057914131452515
-0.54099374191233
-0.04520065666062211
0.1365766287703154
-0.04086291561674246
0.03836099491021267
0.08120985658918468
-0.08120985349453533
-0.5268565631265966
0.4843313291163928
-0.414872346801356
0.1612958783445431
0.6223049439343727
-0.09711010275184179
-0.004745735168051228
0.004745735026427032
0.532988304128949
-0.07876377701069487
0.006203185901074993
0.02715474677406238
0.03483390341402033
0.6886339488954263
-0.7673977260831238
-0.6597791636150948
0.6300852465938818
-0.1100442306890264
0.3139126281763292
0.7455398881733373
-0.01957754089022906
-0.265301534479383
0.14932898876035
-0.7446021918109409
0.4837751461103564
-0.4262653680824107
-0.1012359634683604
0.003289260125498765
-0.01457372319047956
0.02505616356833766
0.4119519558253407
-0.1215832555233756
-0.3893564529500828
0.6290402706978593
0.01931391354874198
0.009022020033126646
-0.009022019896095398
-0.3527705749318982
-0.07853301535981494
-0.5603016109035776
0.5570400730606742
-0.2375088046363183
0.4647156629477923
-0.1506524122378061
0.7309979188316635
0.6695721062744274
-0.04086291679376432
-0.617193838515376
0.5607851614514053
0.2820153465747282
-0.277112302504569
-0.004903043078878924
0.5387059686908476
0.09344374329141893
-0.03881247297129346
0.1962878264139707
-0.1574753529555257
0.1200223311041351
-0.1200223285371003
-0.8586196999438709
0.002435215262304408
-0.1133637135129203
0.1405184591404895
-0.1315345225094818
0.1315345230914143
0.01977454437531559
-0.02432328168267003
0.6704530857549348
0.06072436613289256
-0.3226716570707236
-0.06267902560356239
-0.4712937918748375
-0.04431245643398354
-0.1513203958724425
0.1513203968604968
-0.04326394383827826
0.1436576760008333
-0.1436576767629873
0.1363612757747368
-0.1363612740023777
-0.3161678783442041
-0.1145281245483522
0.2260177795205278
0.1031611605153778
0.03478839760918836
-0.8212369089181767
-0.1980327121671067
0.1699194767078799
0.02165744142190969
-0.26431951864069
0.1261975940198218
-0.1261975946886774
-0.4143270387399705
-0.08480872544952686
0.2357643166903247
0.002816018198830324
0.0403469403817201
-0.5446368246109067
0.5782581823102441
-0.03234054347500881
-0.01092339866100736
-0.0247304541456328
0.01166164615457965
0.006548081206592862
-0.1847312490116048
0.1781831678725104
-0.1079828553882882
-0.227374558424965
-0.1444004611734344
0.1444004619821774
0.0724265086537115
-0.07242650831099785
-0.01897305510740392
-0.1085675118308157
0.1275405663597986
0.2340785109166723
-0.1834364803832075
-0.02288793805079152
0.02337993345369741
-0.1288574033878591
0.6131887328411224
-0.03906707335682278
0.4262114675927456
-0.04176658828411863
0.06496508625156569
-0.1531035300607682
0.1531035313830648
-0.6365767381571227
0.3081491787068683
-0.0791182833592599
-0.2341402928791392
0.003657174703272475
-0.1216159013565566
0.1619628426251853
0.1947272191695073
0.09635271017511458
0.09565241505274169
-0.06081851184951797
0.07316157241748157
0.04164847754242593
0.06416798495373019
0.105751495744502
-0.1000529814563068
0.212551725553051
0.01152394063688246
-0.1158107380022126
-0.1012177556326346
0.09625376011297078
0.004963994608156875
0.01075252070349698
-0.02245268131081525
0.03735403138312628
-0.03735403133365867
0.07467192441146581
-0.05533781953058318
0.05533781978791406
-0.2243686614576854
-0.05084565051876623
0.01178979520756955
-0.1031420060095241
0.0163389438622107
0.1088210251655119
-0.1088210256156818
0.2929366577262518
-0.270819736456151
0.1628368774567533
-0.05063018101646882
-0.2201895546828722
-0.0168504598552028
0.01685045959968636
0.3675592919221566
0.2851718608227057
-0.5279999938613403
-0.09392698890103873
-0.03271779644778457
0.5288551648915959
0.2093480433188747
-0.1689488235274994
-0.3809103666457789
0.07658781418355601
-0.1472091681645069
0.1868192193023434
-0.03961005092419584
-0.06717255602946806
0.0671725557570918
0.82212770235975
-0.5603293361364308
-0.003709946275081929
0.01446246791226775
-0.0200409435262776
-0.2873074877278476
-0.01746008322918492
-0.0128659441917384
-0.1321479164686911
-0.5723051892860243
0.5561025190536881
-0.5686577630149369
-0.006919931375732556
0.09906539461304645
-0.001783139539186568
0.01674225850956151
-0.1672501115988786
-0.336167072290154
0.2330250661947437
-0.05404553560593279
0.03507247892991457
0.1322126525956341
0.1734493308937039
0.3419814182516538
0.2759534113835497
-0.2777365513547228
-0.06285676437806405
-0.1550948325664626
-0.2205388067683012
0.07454910400934835
-0.01038111795234945
0.2135773724455868
-0.196835114363198
-0.08623873623848353
0.1594003110151267
-0.3550569338505975
0.2081055357960759
-0.1917665920436867
0.08964658348008228
-0.4790030326858626
0.173953273476817
0.1706923008088425
-0.2569310417831586
0.07319972881736922
-0.194837356610661
0.1773772737713089
0.0173765668652197
0.1420237435255086
-0.03959154756765897
0.06579150969341999
0.4671967948701395
0.02050356938242768
-0.08370290344187427
0.05526678691653216
0.1259447317989597
-0.2601488596694319
-0.2309517455284275
0.5597217858593155
0.1569876949232043
0.0787766224146496
0.07484199509066965
-0.03107589587111045
-0.001654527385209124
-0.003248507707549178
-0.03259672067521113
0.1706905032691935
-0.1776104350509562
-0.05864674251106906
0.01966999171245264
-0.1471072760522167
-0.05281361726553758
0.1539049724248196
0.2770500875288945
-0.04058612411374975
0.01000711917239935
-0.2551638423869909
-0.1314247891421347
0.2362500969993615
0.1786119663940627
0.1295372116384364
0.02181077648970459
0.08847348968600226
0.05225590440436765
0.4521670357672146
0.01648793914198739
0.09794950366731267
0.04297783877579196
0.07230934249329413
-0.1152871802356007
-0.2428281309533365
-0.2004227481402956
-0.0197668085319647
-0.2019529422492017
0.2749306467583659
)
;

boundaryField
{
    FrontBack
    {
        type            empty;
    }
    Top
    {
        type            calculated;
        value           uniform 0;
    }
    In
    {
        type            calculated;
        value           uniform -1;
    }
    Bottom
    {
        type            calculated;
        value           uniform 0;
    }
    Out
    {
        type            calculated;
        value           nonuniform List<scalar> 10(1.03588516389618 1.06431388102144 1.022685007736974 1.021537837954312 0.9961674926841506 1.013048201274202 1.034185494762061 1.062902762549144 0.8672273476195761 0.8820466508306128);
    }
    circle
    {
        type            calculated;
        value           uniform 0;
    }
}


// ************************************************************************* //
