/*--------------------------------*- C++ -*----------------------------------*\
| =========                 |                                                 |
| \\      /  F ield         | OpenFOAM: The Open Source CFD Toolbox           |
|  \\    /   O peration     | Version:  2412                                  |
|   \\  /    A nd           | Website:  www.openfoam.com                      |
|    \\/     M anipulation  |                                                 |
\*---------------------------------------------------------------------------*/
FoamFile
{
    version     2.0;
    format      ascii;
    arch        "LSB;label=32;scalar=64";
    class       surfaceScalarField;
    location    "1662";
    object      phi;
}
// * * * * * * * * * * * * * * * * * * * * * * * * * * * * * * * * * * * * * //

dimensions      [0 3 -1 0 0 0 0];

oriented        oriented;

internalField   nonuniform List<scalar> 
1171
(
-0.9279009440414937
0.9279009441215396
0.7872841396778185
-1.098892522163137
0.3116083826107088
-0.1930913146363836
-0.7677890878667211
0.9608804021139248
0.0720990587245053
-0.1177911954759243
-0.2120031177912537
0.3297943125813723
-0.7872841247383365
0.06926871307636742
0.7180154116494164
0.8106353168734955
-0.177571495627418
-0.6330638213924332
0.8740050833058282
-1.043639560540848
0.1696344771848885
-0.2848429623780884
-0.09833914769268291
0.3831821096597475
-0.0363651038565922
0.5485056810917006
-0.51214057712719
-0.508861706406517
0.8297784271979652
-0.3209167202710164
-0.402634163246853
1.045521766328979
-0.1715166860497487
0.3946185258158557
0.0502495651350262
-0.4448680917051556
1.046247096500954
-0.0007253311458323418
0.4465129916567013
-0.05189445159798583
1.056699795943912
-0.0104526995500689
0.5796346097466341
-0.7727259249233891
-0.7241219476376143
0.5568750744966819
0.1672468731278767
0.2162064592283363
-0.7250681684936812
0.5497384399775335
-0.9224335790799092
0.3726951397613247
-1.094219780118415
0.6865573156432117
0.4076624642625596
-0.5954335480297899
0.559068442649851
0.01729057240540154
-0.2558305637496857
0.2385399932960268
-0.02339385320445787
-0.5248953990168219
0.5482892496177596
0.399915264714567
-0.4982544158129171
-0.9188419703264705
0.941630617442149
-0.02278864702747208
1.06789289446561
-0.01119309882901898
0.9351245261205001
-1.11691185057461
0.1817873244181825
1.06747837208749
0.000414522299864573
-0.6642624975355406
-0.05985945590747407
1.262013474537492
-0.864477473251096
-0.3975360013345692
0.1486364007935959
-0.1096501014511865
-0.325170717012282
0.4348208182503116
-0.2855756504550264
0.1918411822840047
0.09373446741816664
-0.5834931461162176
-0.5153993846934797
1.014149299101152
-0.07902477141216288
0.009883322937389373
0.825479310119436
-0.835362632989746
0.5717003979289678
0.6903130800211048
0.4388555735211717
-0.03106940359999219
0.4309846660205332
-0.8079182495815297
-0.1026177984019251
0.9105360479810122
0.5025063570076805
0.254101238986837
-0.7566075958543192
0.004351994622990476
0.5313202906393596
-0.5356722858981902
-0.4899842619075477
-0.6042355180599308
-0.4228511076964668
-0.694060740302983
-0.02754342594257726
0.2707966717247601
-0.2432532462874132
-0.9249244800877919
-0.005203413448274393
0.9301278935755276
0.3078995540239789
0.07528255148879544
0.7618971171434314
0.04873820256122874
-0.5329091796613056
-0.06252437194915231
0.0461762483547674
-0.8540944960880497
0.07733344258283224
0.8619600862873366
-0.9392935287832337
-0.3472111156526728
-0.04060600075152063
0.3878171171797889
-0.6823376189300747
-0.2425868581445347
-0.6329813109865168
0.7103147525249865
0.6117003109765677
0.2180781142225436
-0.5432099778745004
0.9460368247406519
-0.7791571794675743
-0.1668796451587704
0.01571323485200268
-0.006427456281604052
-0.009285776215305555
-0.4032128984169133
-0.09504151674065579
-0.2419596364462215
0.8536599446599569
0.04827199638878191
0.3334227066755953
-0.3816947032498927
-0.4614763323121768
0.9639826823647374
0.6802701508839029
-0.7828879470510782
0.3178245400233897
-0.0145864736165647
-0.3032380627613618
0.9306769743558762
-0.9306769743517755
-0.7823930598098786
0.111532747871321
-0.3235358658619911
-0.7499935477063262
0.7598768720322471
-0.09129496247093906
-0.1427903787195424
0.2340853413755389
0.8648735806686634
-0.03939426928826804
1.054631498768026
-0.800530263857268
0.1865564359053624
-0.3162399219190253
0.1296834855848205
0.858591331541451
-0.0966942124255898
-0.6114438351050467
-0.03942813354729471
0.6508719686700131
0.1235868150090112
-0.2305247925897795
0.1069379788533011
0.8055384406301239
-0.9831099315922365
-0.4343312855195492
0.3291133351905528
0.1052179500343831
0.5332398620033302
-0.5566337133102855
1.022068922887879
-0.4562743486915778
-0.5657945740907977
0.5992178121258084
-0.7192588119633775
0.06644611415653949
0.6528126972378933
0.1019837241402554
0.5700145426794013
0.05476907730061764
-0.6247836199744062
0.1949558985054662
-0.08342315620721256
-0.4923105087378364
0.1450993987438903
0.05033456561354988
-0.886585509144828
0.8362509435135884
-0.4746458382639038
-0.7132361579569875
0.04897365788931754
0.4365808162697928
-0.0055961494090724
0.3001013108393948
-0.8553053263041955
0.5552040158792609
0.415750512221475
0.5842494877066835
0.5606387693677939
-0.5144625211502571
-0.3660965454068332
0.03870020307503531
0.3273963415377199
0.6812767610996598
0.2494002160585179
-0.5677649045914491
0.5721169007057382
0.1114100918939683
0.8748071402037081
0.01030176870857403
-0.6217456048888818
-0.7491596846967156
0.7994942511248968
0.5305864032872269
0.07134540777315584
0.3002315943809913
-0.3715770022345951
-0.1675371799226753
0.4445128330830633
0.08680744245619035
0.8738879334754998
-0.8014963240242967
-0.07239160929905386
0.6355153077385907
0.3105215207684554
-0.4307563303964942
0.5747238617980295
-0.5033784513479999
0.4170407119143568
0.1326977259777424
-0.04682231194027019
-0.5891944236140577
-0.1395246395030155
0.728719062978006
-0.1496718316404694
-0.7810051398795124
-0.6110695556152126
0.3602288826650194
0.2508406721333141
0.6221178590075318
-0.6118160920397175
0.2384993547581727
1.011755948331531
0.04287554403814063
-0.7491596809431591
0.2208996687354553
-0.2051864342429317
0.6802701515866447
0.8020192657025528
-0.8020192656317451
0.8376118479141212
-0.8331535653040751
-0.004458282516914962
-0.4453393336711818
0.861089841491628
-0.1475006451454227
-0.344809858932035
0.7347687014506359
-0.6685611574113483
-0.06620754413319843
-0.7350035455876911
0.1458091280948804
0.1390907686331007
-0.6719999505764979
0.7828879517897264
-0.9504251317859213
-0.3659337721969103
0.2857495424248154
0.08018423283953346
0.1457242466342415
-1.009879071366755
0.864154824743771
0.4805278002410727
-0.0416722267685003
-0.3080870191100288
0.5862489486394219
-0.2781619294900997
-0.7384735803089785
0.8841978221190213
-0.1570393148278488
0.7333865229748185
-0.8360529590548346
0.1026664366758679
0.9779625804837991
-0.5401860613446312
-0.437776519053737
0.7551969592874068
-0.06487053474206002
-0.03620753401233648
0.1861398818696297
-0.149932349413585
-0.7757605330119846
-0.8406259762282067
0.07283688853778952
-0.7499935487809265
0.5140512220783163
-0.5546572166756656
0.09588237919879895
0.7162360427724359
-0.8121184218510968
0.7536179618795112
0.1742829875671209
0.5029135381412916
0.49708646184282
-0.0551664779869975
-0.6081028808007072
0.6632693579888567
0.8783617108509449
-0.004473777243478344
-0.7551969592848281
0.7994942538000898
0.1915369834944571
-0.4473675481105518
0.01416437577705067
0.002417365686067917
-0.01658173881179274
0.5894202704492897
-0.437682163524627
-0.1517381069771301
0.7180154019191308
0.01261698080886802
-0.1072394558299686
0.4386599858715453
0.1507602862419457
-0.01434550462977473
-0.007720116669951049
0.0220656210319977
-0.03275162206495815
-0.003455894437392921
0.2452879598709904
-0.2598744308646432
-0.9590585755650024
0.001876867396076708
-0.1595643217843272
-0.1206458191525413
0.09476526441002618
0.7220230426532546
0.7289441522147774
-0.1446946675574617
0.6670896922765902
-0.5712073101041912
-0.2119771081306003
0.3985335521712593
0.6955980515516814
0.02241735037484041
0.2417538044680356
-1.074907368332025
-0.9504251310106134
0.3023034067027897
0.7598768722186826
-0.2092215385474802
0.06643116525299869
-0.723899906319533
0.9097826849094666
-0.1858827784088741
0.4161089335469287
-0.02829181376357639
0.771380410950663
0.2807411940643997
0.3756900614655329
0.07082291840040644
-0.6587122801008722
0.6587122800685893
0.2148491213622056
0.6956869277987591
-0.05590849467149626
0.3893311943595515
0.3789123233865036
-0.01209733398424037
0.02626172307506511
0.4486093760981182
0.0319184219212376
-0.7384735830747965
0.5340067293025849
0.2007619735898744
0.3014608899079597
-0.1153209971970004
-0.6955980438721567
0.1794847451794088
0.7302979330042921
-0.01028978956936265
-0.8135785719041475
0.8238683614056197
0.6963937599678036
-0.791962706647542
0.09556894660378309
-0.7536179628855499
-0.1511769705515265
0.212278362393952
-0.061101392955646
0.07756642201399619
-0.178314071413148
-0.1135274905235907
0.2918415611906713
-0.004952167862976614
-0.009393348425388182
0.7065504185676321
-0.716840206855624
0.8865425849866435
0.07433781652603477
-0.3164960283261792
-0.5192826436352195
0.8357786714732339
0.1041416105308709
-0.1041416103115135
0.3244497587456445
0.4725507108608702
0.6171625641382521
-1.089713274656373
-0.1940822955724381
-0.585615489452488
0.7796977850126816
0.01382746923451257
0.220257875838748
0.3763764009412032
-0.2527895912140935
1.015434759945586
-0.5428840481747078
0.667777158917863
0.9938623091736579
-0.3766997438086362
0.2288757563402177
0.8841978177973415
0.7126811319381466
0.2138759379232358
0.7277546790937485
-0.7810051378871494
0.3412877131380015
-0.2797740261603581
0.2533534292400242
0.02642060080246665
0.846829673801937
-0.001807525305972587
-0.8450221484030954
-0.7022284315865708
0.7026429539428771
0.5546606645537164
-0.7022284323432694
-0.7126811319066131
0.702642953813255
-0.03452504408776313
0.9093711508655644
-0.02282856836361954
-0.6812767648183967
0.6123031041607523
0.0689736606763643
0.5385192925007285
0.5373167305024676
-1.07583602305145
0.4882235342376908
0.5272112255978831
0.5454156952162996
0.4577936802914349
-1.003209375427149
0.4933313784337697
0.5005309314753938
0.6123031063714623
-0.5255741737917695
-0.4658555941760099
-0.5567324310634287
-0.5152847201882004
-0.1198169134994858
-0.01250641966500632
0.0125064190958372
0.5121069866472384
0.5239084771787448
-1.039193197182195
0.5727564126593607
-0.2725248138789153
-0.8843570292239041
0.3441709684001721
-0.6330732425070879
0.3904863867028087
0.001932192285639276
-0.8261537743334257
0.8242215821995186
0.4208571285637157
-0.02149524376215018
0.8683249135551122
-0.9494773391292405
-0.8328656898023341
0.05396461114749437
0.7789010787538415
0.5661323824248868
-0.4400630065504892
-0.1260693765292826
0.6502465215200892
-0.7292712911992012
0.8885253642885154
-0.8291890397782403
-0.05933632459401454
-0.01279712467601616
-0.788699199111234
-0.1104907528845551
0.711924559872221
-0.6014338069844137
-0.9386140332618227
0.9258169089239622
-0.7244321540474965
0.6902950386962263
0.03413711545599134
-0.8089879560786584
0.03556136515827376
0.7734265908190545
0.06192293728416633
0.04221867151224171
0.4327990331928457
0.06095197476658474
-0.8516091035504959
0.790657128991732
-0.6453636800883966
0.5901971997491547
0.8883530506983801
0.07227322655180307
-0.9606262769545357
0.05548736482168906
-0.04912396530408542
0.3765203170221236
-0.3818721727908054
0.06563225931504434
0.8414190183940279
-0.8394868270266205
-0.7346501398284784
-0.8164569368748721
0.02775773887291898
-0.1635900497176095
-0.8512975559363771
0.02210851612345944
0.6217657226663679
0.0453239676897859
0.03195571852463283
0.5341766689065361
-0.8111687426632905
0.8467301059394952
0.565794575545215
-0.8476490209273859
-0.8663408031245254
0.04303034827920645
-0.02848178158159262
0.8361558184094945
-0.807674036825629
-0.02707597508870495
-0.7631319243368319
0.5443116642442579
0.1520820948350994
-0.02498707204744867
0.8933119842664394
0.9797815230718926
0.8628022024251155
-0.8406936861874714
0.1479196162561761
-0.1479196134490455
-0.1179737330949241
-0.4734011308929825
0.03333812925485609
0.270284616648695
0.03201878974923406
0.3883070404389826
0.8662360077115093
0.008747518584528125
-0.01369969269942857
0.6585858478271647
0.3414141521425646
0.78365473634716
-0.5834931452378763
-0.7781129261006489
-0.809481569239056
-0.679854306938805
0.6798543069659368
-0.1680675493292088
-0.1554683266488623
0.6023473620019882
-0.8118652123948956
0.2095178503862677
-0.4939889572491346
-0.5689346271998866
0.2780336350482567
-0.9720943756319419
-0.9004848711076442
0.8411485467490712
-0.8124812404065607
0.8402389794835594
0.6486709415976738
0.1341418005382952
-0.7828127421500872
-0.7753444548373798
-0.1463192067089325
0.7245895798430044
-0.5782703732314967
0.03424886395589169
-0.01247894222094113
0.01676500525662248
-0.004286064479173681
-0.3538680446064494
-0.119533085963626
0.8803809959345129
0.7480193571452396
-0.2460591109614664
-0.5019602465864067
0.6219499935312727
0.6856422181328204
-0.4707930953840924
-1.916447453165736e-05
-0.2855564811363433
0.01669374259264401
0.7509810174907748
-0.7676747599592504
-0.3234234339538337
-0.07324678770481216
0.07636905846986665
-0.9644484389726876
0.1194262872644611
-0.6777234127999715
0.05290464887840246
0.6399841706649653
-0.6928888196314935
-0.7560632875701767
0.07833987483065895
0.5882428331245686
-0.6614896208871207
0.1575710400607689
-0.3358851133908228
-0.7707337756141883
-0.004610679265018194
0.3711055757276154
0.6002436316998134
-0.02551977010940654
0.01941048034371088
-0.01941047809419361
-0.02022654436671125
-0.04833562276713911
-0.2314384077365655
0.02867925279618074
-0.01993170219494856
-0.7254098114657219
0.2792580896886042
0.6804093329508181
-0.6887223745709945
0.008313041393322611
-0.5938683712547895
0.6467730237273853
0.6538333615425664
-0.06559053094860974
-0.6308043346433112
-0.1252589513857333
-1.050721388503504
0.01104330741749696
0.1368763161340381
-0.7087160736672006
-0.7412950790619726
-0.763469796939621
0.3659337993766127
-0.4081628662595423
0.4604604120528292
-0.05229754485793985
-0.662820744957514
-0.04589532891405035
0.5016619682421725
0.7306849099331281
-0.2354706881818182
0.1148248650158538
0.9690591238053839
0.4467482012541497
0.1331284028416962
-0.5798766040915584
-0.6769300455067513
0.01410929836081106
-0.04474429405179026
0.03226536282752157
0.6362964284870903
-0.7758210629985316
-0.001709411970282718
0.001709413509961744
-0.6012088247723422
0.648943549202297
-0.04773472482112145
-0.6449743227554238
-0.1132232736861213
-0.6715015606175231
0.0603690499077543
0.6029003062966601
-0.1373495256230194
-0.8178207610825691
-0.5703545949312934
0.5672778563471425
0.003076736344436498
0.6290399858776842
-0.6207269426844356
0.3225517208192057
0.2138863661013671
-0.5364380868752616
-0.1049986519129792
-0.6013630557424209
-0.09152576074546112
-0.1544606209110828
-0.5099855519502473
0.4041192104935794
-0.4991607293661203
0.1268775119792701
0.678441256355666
-0.8053187681805443
0.5992178121381911
-0.3673105244048967
-0.04085234567735421
0.08153708900527422
-0.5915226443265587
0.5515213734096447
-0.04063757245012153
-0.5108838005950548
-0.3130557030871183
0.3056213141491941
0.007434386728781774
0.4541504744953308
0.1186059340080106
0.05247031213751425
-0.3164926145959879
0.1574724993088339
0.1590201149127186
0.2284940415826766
-0.007594363194182331
-0.2928946232894997
-0.3100311243964931
0.3507912960343783
-0.04076017799237506
0.7872034433943136
-0.6255663944037073
-0.01940792867026276
0.4992089813138945
0.2826965198361496
-0.5287556327945898
0.5774978745409487
-0.5774978745380306
-0.2897389669110808
-0.5864442509151123
-0.2955905600883948
-0.586444250881738
-0.5946924743810795
-0.8385006264362167
0.1699394681686484
-0.5922282600377217
0.8211006170494103
-0.003135840241744655
0.1175812614854945
0.4826623720172307
0.09677700645302502
0.1860517037023136
-0.03651373675042911
-0.1495379667191292
-0.02495041336839842
0.5921076530458873
-0.9447780651287777
0.4254954213731946
-0.007314617922441177
0.004068795476493217
0.003245824395977096
-0.6438609019653051
-0.1318374946662769
-0.4685603745550254
0.6016887809170177
-0.5035546533684576
-0.3274643371145802
-0.264058286007859
-0.2712192677237406
-0.1115698579361245
0.1115698561055559
0.1528231089191046
0.05945525239717943
0.1970950069627345
0.4528660510610624
-0.5717317411184181
0.1031713686728262
0.2460387893267545
0.4664968701079172
0.5335031293487744
0.6426675065799532
0.08872804956621085
-0.005972338908112482
-0.08275570269582658
-0.2770645553206423
-0.5407562059347041
-0.5514683066283023
0.1147201932941973
-0.126578042593547
0.01185784870360922
-0.1054559481241801
-0.3854474303220251
-0.04879914131407236
0.6516994414402801
-0.4989748822311091
-0.1448860197122645
-0.3338917886545012
0.2893635437552108
0.1272852621277342
-0.617102639791693
-0.2045812899510217
-0.2628205192439069
0.002946082466214241
-0.4219418652675241
0.32388554261867
0.09805632291263454
-0.09602817965768902
0.2917128526538689
-0.8959483723498853
-0.4575367517541756
0.6267490241943937
-0.7732065215854885
0.6682078696103628
0.340207222973916
-0.1241002630515391
0.2239035769105945
-0.0998033132007403
0.02604607564199957
-0.5862876084517707
0.02889143815029383
0.5573961704786172
-0.9006243806302501
0.547747670918204
-0.6657214037693894
-0.1036295180900039
0.1099089279435368
-0.1099089256759002
-0.3165117752564439
0.360080153083912
0.01644016556005771
0.03028405998700519
0.05844399350807471
0.5050666365283604
0.6642178536431256
-0.7366094621558871
0.03270142302667257
0.02142596999553015
-0.002015502166317728
-0.007210649633797279
0.007210647996651377
-0.4147187369009157
0.5333246731972602
0.01568395215293188
-0.01568395221540025
-0.7924639376833696
-0.06122253873600401
0.123145478078907
-0.4571846288175884
0.5603560003910564
0.4523070238327215
-0.5000417514865064
0.1502647121500751
-0.1502647094184065
0.03183912463545188
-0.005577402266563647
-0.04256264150577395
-0.9753077467202966
0.5375312277839764
-0.4670162966798058
0.04221867810642435
0.5149495048612159
0.03081810052159913
-0.545767605278842
-0.6164237626821553
0.1174488843627789
-0.3290899200021396
0.01350022651642899
0.3155896950784373
-0.1557691892368341
-0.07970148463435331
-0.5410055605284493
-0.04528204180328102
0.1368763053473898
-0.03990475204123149
0.03819533859807704
0.08048691530226633
-0.0804869165569972
-0.5290061091158066
0.4882459398683542
-0.4148323830213475
0.1613182542624581
0.6223364820610904
-0.09721423096182308
-0.002645465058943661
0.002645463999241637
0.5329429952588404
-0.08292596674479173
0.005767312448434193
0.02696738016243874
0.03500802130391075
0.6848331608675129
-0.7677591277201621
-0.6527951025156409
0.6333871763034485
-0.1069361542075885
0.3137819084203033
0.7458004462136523
-0.02022654532949874
-0.2661442783048828
0.150823284356234
-0.7446049083471216
0.4839923230282192
-0.4276483436748599
-0.101474255855631
0.003306106330689499
-0.01426564128305734
0.02270690355985102
0.4108307450173704
-0.1215272617325258
-0.3893565339088018
0.6288136013715147
0.01971706770742489
0.009933484659222421
-0.009933484125123935
-0.3508703662427108
-0.07614004659734969
-0.5602906343231143
0.5571547940893843
-0.2376277527049079
0.4647216838335587
-0.1511097057772249
0.7307443152789904
0.6704475309102488
-0.03990475374738429
-0.6175210418758867
0.5632080748505029
0.2864256584996668
-0.2821113555021944
-0.004314302178375102
0.5373590029190088
0.09341005513902188
-0.03904218102698524
0.1959376750792653
-0.1568954942015136
0.1195290936757474
-0.1195290962204014
-0.8586735945866164
0.002345106873611797
-0.1136718466839978
0.140639227893192
-0.1315727629457383
0.1315727605742862
0.02142597305351782
-0.02287202143406977
0.6698523531470021
0.06044557879169894
-0.3226473287536927
-0.06280010093440012
-0.4712379805361074
-0.04746613741946336
-0.151266503659679
0.1512665006845044
-0.05091659044824479
0.1436615578595062
-0.1436615549968807
0.1360870297673222
-0.1360870324078041
-0.3160804386830656
-0.1146758916804783
0.2260347258781205
0.1030786123582452
0.03480523195740587
-0.8211647337602571
-0.1985720640967339
0.16994415752338
0.02159282652360165
-0.2643708251009591
0.1261649599775566
-0.1261649574595714
-0.4142697623296272
-0.08489096916773832
0.2358038796602566
0.002736114053204298
0.04058216579171133
-0.5440407362106628
0.5785657802850352
-0.03659880385191316
-0.01431778368274742
-0.02618063248298644
0.02060322904435904
0.006603147975612659
-0.1847815054652833
0.1781783578749713
-0.1087020870536106
-0.2271830218685482
-0.1443977803442407
0.1443977774561337
0.07253262858516171
-0.07253263018002631
-0.01904235662698887
-0.1085453312937348
0.1275876891676017
0.2374690884124593
-0.1833722126741069
-0.0284153686066379
0.02639985881310695
-0.1332473940565825
0.6214933313679319
-0.03903723099455188
0.4271086016596126
-0.04339960008055868
0.06546521937305129
-0.152963976343463
0.1529639732252026
-0.6368299593348696
0.3081864543806917
-0.07931069549081587
-0.2341138684014198
0.003589066062178652
-0.1205998132164817
0.1611819785306445
0.1959884860714655
0.09585307442415321
0.09705210981242485
-0.06204408935910075
0.07307461875177301
0.04164557402851989
0.06413494748543455
0.1058092103797273
-0.09865685211412327
0.2134817073679719
0.01164289487862122
-0.1185885857556001
-0.09957400429158558
0.09631995988879535
0.00325404713669133
0.01149248360326682
-0.0236825183757532
0.03747223128655242
-0.03747223156303353
0.07533786338790502
-0.05525804434364996
0.05525804389784637
-0.2243996722918868
-0.05312335271989256
0.01162857593223505
-0.1030551965642415
0.01655794573745099
0.1087614697378019
-0.1087614682063469
0.2940448081345904
-0.2709919750136249
0.1622898890223165
-0.05108198189920764
-0.2199099944651398
-0.01700155768594511
0.01700155853417585
0.3676273923457105
0.2851853106836859
-0.52805754266183
-0.09394877363761488
-0.03262926639329099
0.528945650044632
0.2112884453505523
-0.170291196592111
-0.3794609683802685
0.0764957086557826
-0.1472672523157779
0.1868163975394709
-0.03954914612599338
-0.06711589399928145
0.06711589519576558
0.8222961548866098
-0.5604609005176339
-0.006362205508074922
0.01785469161398537
-0.02000291554263469
-0.2873058226234558
-0.01749659343707083
-0.01282501524251468
-0.1321408983106018
-0.5722673476293025
0.556128944321807
-0.5692930038731523
-0.006868733097790508
0.1016470300552242
-0.001697465752688528
0.01687694325517602
-0.1672701753519529
-0.3361284885742163
0.2330732924530919
-0.05410274501315051
0.03506039583184368
0.1320255222314063
0.1735957955394244
0.3408409013656815
0.2759522209587907
-0.2776496854182425
-0.06137866522113972
-0.1552803066821414
-0.2206136378457646
0.07457341258359655
-0.0104384639322938
0.2135184720918354
-0.1966415281802954
-0.0862892846965409
0.1593638995249612
-0.3554066404691799
0.2079774614595024
-0.1914195161325395
0.089574036464781
-0.4789305731635279
0.1739913787239118
0.1706232501051471
-0.2569125344165136
0.07336958870080017
-0.1948437097899571
0.177347115885896
0.01740349324791587
0.1419604103718664
-0.03957408317358721
0.06567109845575697
0.4672718963491842
0.02047066744602531
-0.08493444825524943
0.05361237780865801
0.1263735853614487
-0.2601627833926036
-0.2309105387133946
0.5597445581021551
0.1570841700617937
0.07871971234586413
0.0746724079767831
-0.03098549269025951
-0.01035425478972448
0.006039938421200194
-0.03268550018731388
0.1707117112335999
-0.1775804436311608
-0.062227540894828
0.02003765770161962
-0.1471928697279915
-0.05288329950827612
0.1512541849271511
0.2770420768537133
-0.03925374598827376
0.0102489818455011
-0.2554748307853422
-0.1328248418896638
0.2362555140681904
0.1784108562810642
0.1297756008836543
0.02209895789761174
0.08855046197423384
0.05244576381650893
0.4526208727662682
0.01489694076254744
0.09789241418568269
0.04312395976196563
0.07220334207026541
-0.1153273040171296
-0.2428722272810908
-0.2005098200295936
-0.01940017548339388
-0.2018884947216394
0.2748750046675957
)
;

boundaryField
{
    FrontBack
    {
        type            empty;
    }
    Top
    {
        type            calculated;
        value           uniform 0;
    }
    In
    {
        type            calculated;
        value           uniform -1;
    }
    Bottom
    {
        type            calculated;
        value           uniform 0;
    }
    Out
    {
        type            calculated;
        value           nonuniform List<scalar> 10(1.03363922892388 1.064093465772622 1.022588025246926 1.020542603578646 0.9951104096593616 1.015815651659803 1.036015464332714 1.062923584530042 0.867236842185906 0.882034810925853);
    }
    circle
    {
        type            calculated;
        value           uniform 0;
    }
}


// ************************************************************************* //
