/*--------------------------------*- C++ -*----------------------------------*\
| =========                 |                                                 |
| \\      /  F ield         | OpenFOAM: The Open Source CFD Toolbox           |
|  \\    /   O peration     | Version:  2412                                  |
|   \\  /    A nd           | Website:  www.openfoam.com                      |
|    \\/     M anipulation  |                                                 |
\*---------------------------------------------------------------------------*/
FoamFile
{
    version     2.0;
    format      ascii;
    arch        "LSB;label=32;scalar=64";
    class       volScalarField;
    location    "1242";
    object      yPlus;
}
// * * * * * * * * * * * * * * * * * * * * * * * * * * * * * * * * * * * * * //

dimensions      [0 0 0 0 0 0 0];

internalField   uniform 0;

boundaryField
{
    FrontBack
    {
        type            empty;
    }
    Top
    {
        type            calculated;
        value           nonuniform List<scalar> 
15
(
142.2802302046817
133.557393632558
138.0604194907948
144.3840967299314
159.7578616570585
131.3661150811417
140.1126215671136
135.3384553935244
153.4461915370781
135.7282807815774
136.0778236754719
136.7802624774993
125.2480503975338
132.906351959064
123.9552179341228
)
;
    }
    In
    {
        type            calculated;
        value           uniform 0;
    }
    Bottom
    {
        type            calculated;
        value           nonuniform List<scalar> 
15
(
155.5681018269089
158.1145067367958
141.1062883344788
142.0702167908
141.1880263798937
148.4531605755756
142.7157095566373
143.160520368718
143.4214852563378
134.0680686731725
125.7366731171887
141.5633484534489
122.4094100870614
123.4871730009445
124.14190140512
)
;
    }
    Out
    {
        type            calculated;
        value           uniform 0;
    }
    circle
    {
        type            calculated;
        value           nonuniform List<scalar> 
32
(
56.02807794120954
21.70032227435294
65.19186136803783
26.44198540406601
20.39383541511279
56.29745990181407
56.59822807221371
23.87169865111508
22.05285370104812
65.42648210613089
39.82678085009076
62.88936067977593
50.6554041708896
17.46201895384301
22.53207719809783
18.92652500417562
39.33121745659141
59.84742280347826
61.11894803163802
26.42343848922036
65.83734131378236
63.71208291011482
63.13055295089669
59.8105155044297
64.20845122383535
46.09854343546137
66.49957858508907
32.25755937079445
37.82308355926534
55.62538716966046
21.44285198999248
43.02035006308201
)
;
    }
}


// ************************************************************************* //
