/*--------------------------------*- C++ -*----------------------------------*\
| =========                 |                                                 |
| \\      /  F ield         | OpenFOAM: The Open Source CFD Toolbox           |
|  \\    /   O peration     | Version:  2412                                  |
|   \\  /    A nd           | Website:  www.openfoam.com                      |
|    \\/     M anipulation  |                                                 |
\*---------------------------------------------------------------------------*/
FoamFile
{
    version     2.0;
    format      ascii;
    arch        "LSB;label=32;scalar=64";
    class       volScalarField;
    location    "57";
    object      p;
}
// * * * * * * * * * * * * * * * * * * * * * * * * * * * * * * * * * * * * * //

dimensions      [0 2 -2 0 0 0 0];

internalField   nonuniform List<scalar> 
808
(
-0.03582784155052515
0.04508900488550319
-0.01187668640120127
0.03510973191362956
-0.3036301497493181
-0.05460164726379692
-0.01450231741119357
-0.02387486404284567
-0.1999902255058414
-0.08557677637089316
-0.009424137364987645
-0.2576203643596855
-0.03056044596950581
-0.01291308935505425
-0.1218995833330058
-0.01399868674167199
-0.1405326029177019
-0.01355331241712527
-0.01249391638427261
-0.05693105362378315
-0.005851952010356942
0.1182978844367371
-0.0608469808762908
-0.07334278201756522
0.1764528823994822
-0.09932818525902111
-0.1551534577985582
-0.02030192921396302
-0.01737160202247307
-0.02601946056226093
-0.02015749150199367
-0.05983094652289098
-0.02296499909023334
-0.01683221207885131
-0.1010376819574649
0.3441294019136987
-0.0385259958602225
-0.01681331312389369
-0.02328836617727224
-0.02658246655031714
-0.0918274322912607
-0.1289149834417607
-0.05075106968848427
-0.02060729045960501
-0.05486859755508635
-0.03988540668557896
-0.01236436848624605
-0.1874355480231218
-0.02758221881504821
-0.2073001380819964
-0.01605872872701679
-0.06890281044507018
-0.05947695393038592
-0.01478892092760143
-0.1903792260653427
-0.02898144099243107
-0.0106600498716367
-0.014321398710724
-0.1023160564420598
-0.04067778582600332
-0.09633985300777095
-0.1285115893672981
-0.01337258723734955
-0.1301311878815167
-0.01690987519562137
-0.0505649508382833
-0.1668933570825354
-0.03567468670266284
-0.01485518954684954
-0.4459611922980508
-0.02699844918785396
-0.3079357651434662
-0.02202129171645471
-0.02032283293954721
-0.06713181783557332
-0.0173318839952318
-0.04352670129046688
-0.3595465731806183
-0.03541604987050205
0.04194259221681891
-0.09049808559270701
-0.01729440574405644
0.05680064086218677
0.04357872557804635
-0.01654031163693276
-0.0532748891377483
-0.5488364866103287
-0.2228880165564463
-0.05339363323475002
-0.1115572617315352
-0.05798110732416514
-0.1348347322430513
0.04072258712202124
-0.02383356148813855
-0.06052521967206843
-0.1192603423507362
-0.03850381385203332
-0.05204625160778108
-0.1180812430907144
-0.1399063134196571
-0.05205805074170568
-0.04840828906595943
-0.05560322656099328
-0.04578149932605833
-0.05793876089910929
-0.07321828781348816
-0.04150541023751431
-0.01127228656994007
-0.04109740249331569
-0.126599418613827
-0.0512826004634851
0.08333182545939295
-0.04314928599895673
-0.008132667179263808
-0.02784387729046514
0.1801955997427047
-0.03985306851469278
-0.2734688983315861
-0.02027434738792453
-0.05483062513258002
-0.02696148096515745
-0.04779757552201194
0.0126039419784897
-0.05005003634117973
-0.03402398179266389
-0.2142680956631705
-0.04282642683341868
-0.005114038923441809
-0.07767231671679123
-0.06752601454868119
-0.1465746922914487
-0.02089476696717011
-0.07649932803457107
-0.04116013069866459
-0.02271219024165012
-0.01659915831641959
-0.006429143091169445
-0.007349504558359219
-0.05316197474248346
-0.05095006969078042
-0.2101511883872585
-0.05806516642583136
-0.008567121853064222
-0.02278341779464304
-0.1448352686759034
-0.002417039699033836
-0.07773436875010829
-0.0236505411808003
-0.001151745673393339
-0.01052986582129861
-0.03391580384655157
0.09553070888482368
-0.03978581508922256
0.2527347781626106
-0.2661134250919999
-0.1303236562760626
-0.03710263033649906
-0.09124143721720482
-0.009217593303412598
-0.1117512749714872
-0.1861165612924256
-0.2151642314240068
-0.1825427680656235
0.05539668165650834
-0.06180244371296632
-0.02027520774143916
-0.06793370196830265
-0.171455772650298
-0.0239185791579196
-0.01846741498078634
-0.05329342954178139
-0.01805053496039627
-0.005955706759756345
-0.1103264537686705
-0.02274045402847934
-0.04661153713237326
-0.06876049408071706
-0.163753691185819
-0.03374530219466812
-0.3961451033767461
-0.01779278655551519
-0.2224664009829243
-0.04544358721773072
0.03064707559578631
-0.1053858753664226
-0.01415650468307122
-0.04155657124503494
-0.1056333061193957
-0.01767095914341875
-0.09693568761821753
-0.2057191047698039
-0.07295229648987132
-0.02368522981728203
-0.04980877565776538
-0.04383415130886965
-0.2044356781316212
-0.02182351178776153
-0.01893863144007797
-0.0113672495083506
-0.05459862098271396
-0.05201859007500909
-0.02238275655358225
-0.02085586736819342
-0.247754982967269
0.1280271766490511
-0.200598320052047
-0.2076585168790112
-0.01178896559443624
-0.01161146309311163
-0.06770793126394707
-0.009546565135646182
-0.5147328394503671
-0.1221336268676584
-0.018920662880718
-0.001156854628469071
-0.02429612846893556
-0.2871008467018635
-0.273963355861454
-0.007068610004424871
-0.01757945261211866
-0.00196911889097002
-0.3444546829389025
-0.02824248757679409
-0.02913239217144085
-0.01249145134931583
-0.01978065390558462
0.05102592511523167
-0.1079818575624803
-0.01383083563744038
-0.02072845886182154
-0.04294083310192438
-0.01818433304542789
-0.01611868565948107
-0.02336192097811669
-0.06687022410558198
-0.0118572461386946
-0.01907708467062315
-0.008514254989177265
-0.000788623013905067
-0.02956573110196695
-0.00155473331570957
-0.00229619639144159
-0.006071069343278907
-0.02562521554148282
-0.007992992909646198
0.001553943445097533
-0.004184784164299168
0.001183210838413146
0.00253293408687454
-0.008577868049836068
-0.1427059912582909
-0.003029408562035581
-0.001362261421397671
-0.04847586845108164
-0.02153026506585625
-0.0249089187156104
-0.01438020048963199
-0.006097722028874628
-0.02085276805519698
-0.03735872618148635
-0.01396570966992572
-0.01282410033171323
-0.01187715668193093
0.007059456204272648
-0.01027841301228085
-0.0119256170594576
-0.0113054876266708
-0.01078874665299451
-0.01010463456910479
-0.01157851458627837
-0.01413397460451771
-0.3112472456806001
0.06105244445157987
-0.01548764794989558
-0.01645202120088997
-0.01307895083688723
-0.01226944069563155
-0.008777519495551413
-0.09768422248851706
0.0093215894717737
-0.01370580822178786
-0.01472515343367223
-0.01079469083388158
-0.05327350142315492
-0.009942147803199146
-0.01380741154085063
-0.009354154352718859
-0.0005555060188131293
-0.009818493037436943
-0.01120718297273322
-0.02490167801226099
-0.01620097394776707
-0.01186134813474342
-0.01335556859016854
-0.007712353953957093
-0.01274048387945434
-0.0116605648116961
-0.05719393723472628
-0.01298209888143181
-0.01131085273557464
-0.008675321462876846
-0.014849906206479
-0.01392667133838728
-0.01571751245603153
-1.379310304252892
-0.0982371754767061
-0.01322242650788658
0.02369306409411288
-0.1655389597302219
-0.09265152838778895
-0.01140161289538959
-0.01404556546482616
-0.2536901405918241
-0.03080414864772025
-0.02042528561701049
-0.01087060761243299
-0.01961027763820258
-0.01088065207080996
-0.03069288711638548
-0.4157838144579469
-0.01233338407408882
-0.01410380931004111
-0.004895476747538883
-0.01068066528570469
-0.009840104688859682
-0.01434562885189053
-0.008826411085342099
-0.02605823501423623
-0.01130642775744282
-0.1620755106104635
0.01724033964781323
-0.007739187900871506
0.003179778546041482
0.01341953982941692
-0.04721922154249027
0.0299597080767805
-0.01294909441685121
-0.1356488652948441
0.2820486463248927
-0.007214356669987107
-0.01321841841527512
-0.008430749289184119
-0.03301935007681808
-0.1222540929455867
-0.01283303830353759
-0.01237380226068939
-0.01684172275846517
-0.01360454667064369
-0.04091715315522953
-0.2138074509777682
-0.01144141814156607
-0.04110081191502588
-0.03998529644055461
-0.1652181421907923
-0.1656601814596131
-0.1395004314193548
-0.2536961514590653
-0.007287758698027469
-0.02130658455343595
-0.01419733848799633
-0.01260913062803335
-0.03279323495592355
-0.02439416380565245
-0.01448949237783054
-0.01502017589713476
-1.082687416624514
-0.005817056325211304
-0.01364251023755433
-0.01848544338754951
-0.0204198268079806
0.001526444879980003
-0.01423472188302979
-0.02784425353455224
-0.1630622961967249
-0.0135763744680039
-0.02226276014047786
-0.01378102699636879
0.0009697141852512439
-0.1796023160122265
-0.0133308128578905
-0.1412867411448301
-0.01610286686325111
0.008126735955307312
-0.01463312555215169
-0.02303299343004269
-0.01558756093876881
0.004963659390845157
-0.2790804166673905
-0.02542234725480242
-0.01592823799136849
-0.003085291537820529
-0.009294863015990664
-0.03061767089415109
-0.01440664248501292
-0.02031427319721064
-0.02141070915789462
0.01329253887670421
-0.1011343499080092
-0.02216749013536511
0.009172369094477262
-0.05092324577197085
0.1583172497909504
-0.1026841186026579
-0.3216713788117775
-0.03075631572816331
-0.02534964639447402
0.1491069618107184
0.08300049533845533
-0.003309593301882206
0.04930643468068942
-0.01566237528236958
-0.01467777506306655
0.002207218911696906
0.0119591027669155
-0.0671548083983167
-0.005797714790728802
-0.0577184743963923
-0.0221106502418358
-0.0157219047366834
-0.03653293544038786
-0.03291329390990646
-0.006637965481770786
-0.01505912860421924
-0.03931466992957455
0.03774342671617884
-0.03889725038690031
-0.01358904341914711
-0.1160330019667533
-0.03208188664929323
-0.0384125491812846
-0.6782018646137514
0.01943741652210383
-0.01087174308098385
-0.005391084109014939
0.1591880931076186
-0.08351310983880959
-0.03487379082671498
-0.2474306367500021
-0.01671500113024116
-0.01663107745305181
0.06221738093206104
-0.1850642889024213
-0.2276380436115091
-0.1987706462429638
-0.6873948474353425
0.004112968790044405
-0.01863165730948463
-0.01680754793705435
-0.07814834836559963
0.1177111327443228
-0.02098827926856783
-0.2435487818829528
-0.03485422543058903
-0.006426350264907663
0.2773908393107523
-0.01131600668522923
-0.09396606672666777
-0.1486116189667493
-0.004480365106698298
-0.04029800613634461
-0.04872435802150614
-0.2068098257268172
-0.008848642226863053
-0.04228621102670801
-0.002442301540662165
-0.5517308794305438
-0.2002095631194036
-0.1754229113066399
-0.02263915867335654
-0.006801928690703405
-0.05977271751778997
-0.05836447343826429
-0.01452259728383627
-0.06734792634289787
0.003029965408919092
-0.01841545162190904
-0.09487208759527718
-0.266396267100055
-0.007402075298041676
-0.02644049969928441
-0.02214132128535344
-0.07401623137308359
-0.09128367203886423
-0.08759144548449002
-0.01174706254934119
-0.9285369059994297
0.1606574172732924
-0.07921530860789261
-0.2574558664070157
-0.04268099838203687
-0.01048830303212407
-0.2527669669218306
-0.1835590396793946
-0.03335746747256007
-0.1281979668137822
-0.01916115695567523
0.5628356859704573
-0.02375544982902168
-0.2300093009858201
-0.02624432299820068
-0.005618393838975604
-0.01198686795157791
-1.254468469675681
-0.1832939423355769
-0.2341892265242917
0.00539932752954181
-0.03710335432989291
-0.2537864181761268
-0.06522703437872068
-0.05081735875944145
-0.1416863903566826
-0.1916590319199584
-0.06757880635822032
-1.231234825167964
-0.1424251163966063
-0.5181140365342244
0.0783632491116857
-0.00689073294333115
-0.02204141628365314
-0.04237460533384482
-0.04080676000437197
-0.02889967626119626
-0.1314824214128736
0.07977295825785513
-0.002540185739266186
-0.00976707414140251
-0.5818180701857897
-0.8654998147162457
-0.1865500849766636
-0.008268772412946282
-0.1384156201259823
0.001133773310395444
-0.0005922797740550211
-0.00178566693017959
-0.05990091096430601
-0.2394687632184441
-0.01341066946113489
-0.1248534759037581
-0.155365635958909
-0.01324194866735894
-0.03600857428006249
0.02181560268551905
-0.05712173460203211
-0.06946545008257028
-0.5041325010945815
-0.2383510355026384
-0.08100570230096278
-0.07225402437618621
-0.01997452575111028
-0.1240323599167976
-0.1521327904751855
-0.07450604883236402
0.02343565594435349
-0.08411116672372533
-0.04782568617815784
-0.01490074183476532
-0.1066022835057391
-0.2714960306445806
-0.05651366800437358
-0.01854760335549059
0.0001854249934424743
-0.01000355284356052
-0.01117307372450858
-0.2162724377419084
-0.01522555162500661
-0.2228093147207924
-0.0103417672313816
-0.06639407632178401
-0.003816938528058899
-0.02319608163378263
-0.3764669663965901
-0.9070588586807472
-0.01134239993837105
-1.050211080790576
-0.6149676042117724
-0.01067164806886306
-0.655460095274342
-0.1758608137591707
-0.005877516639789681
-0.1311768225066254
-0.01694310156036357
-0.121357826544031
-0.06758827913140808
-0.07707161097474335
-0.005085926224776077
-0.002485973356101579
-1.335819128343645
-0.01115317707693361
-0.1836309160605591
0.0004965425266242339
-1.013044188776562
-1.231262646014167
-0.08184758314505328
0.01992845722038491
0.1643304100843921
-0.0046402118309409
-0.0230475359379697
-0.004199667586890905
-0.25387119650108
0.3662183817831096
-0.04070620399284439
-0.2100588854854089
-0.01487342997597509
-0.6565610606567471
-0.07531795345438212
0.1912158691432219
-0.2827922426468449
-0.04963599206621726
-0.06854022539138155
-0.01588860050120192
-0.02176930254044421
-0.5734470181051938
-0.1440215351291202
-0.08534598054912321
-0.1289515337688108
-0.5569996164065613
-0.04399506986819864
-0.9093163510508266
6.478526795065836e-05
-0.2370548208319025
-1.047437085900965
0.1683234672665332
0.2920166092120606
-0.1842811735029829
-0.1934610633447926
-0.2072416601837133
-0.06828355993119015
0.02247821923690078
0.04891950036541914
0.003689612737109558
-0.1675816231341129
0.02548953687719096
-1.353975227264496
-0.08485722063415768
-0.4721514323523424
-0.3294244660734028
-0.2026599202100493
-0.175674922464767
-0.01690562936736957
-0.01547032209067298
-0.1074313905399888
0.1710775391361893
0.3856630737883544
-0.21554036427439
-0.1391414890136648
-0.2381658732075909
-0.06228332869386546
-0.1494968860448015
-0.162192529469907
-0.1252958985091723
-0.1236599223000538
0.4663513652195252
-0.2678572444512643
0.4310812472802768
-0.6008874651128807
0.07046537168004914
-0.2051471686643694
-0.06584065483623093
-0.07382454634068213
-0.8762894406514047
-0.2209695091697686
-0.1897221433863292
-0.3455136982294
-0.4563184619423635
0.570685143371169
-0.2065544706281996
1.600952341300358e-05
-0.07095340357520467
0.3436121620070538
-0.03775810842656584
-0.13172585755223
-0.178708952970745
-0.06348069319498843
-0.01654579229355873
-0.1942501596999965
0.1936233137485967
-0.01285211376713427
-0.09586336726008167
-0.1682385108434752
-0.3143129182507665
-0.3140998748622225
-0.06389645254147519
-0.01031704765598736
-0.07810707673403193
-0.6557290312410811
-0.6685708337222365
-0.3394732468501395
-0.05744167813391939
-0.05217655781737505
-0.02554405039617757
-0.06724887113087229
-0.05811834182365504
-0.3574537840285066
-0.9556388070531621
-0.01040012372228892
-0.08256467563763993
-1.135729195266756
-1.029671796227594
-0.1044544236652331
-0.03823042100138187
-0.07022058500081234
0.3906572429005669
-0.3449918421279727
-0.05033316930070934
-0.597015920370109
-0.1216129652529247
-0.2537559851024789
-0.2095452000435284
0.4742662250674914
-0.626058103245805
0.07321102043414371
-0.02964557254440423
-0.5560283327569359
-0.05115010795868631
-0.3603710407821556
0.1067784124263218
-0.1894727989345005
-0.05953421794418293
-0.1388424249270944
-0.3629062354233494
-0.08833389977641626
0.5143731448801104
0.08521049993740677
0.4710158512530433
-0.103932960564038
-0.1990433218874174
-0.5235921661222173
-0.1302416523471009
0.02715787945171367
-0.05321899703155474
0.1029604797500014
-0.3078157562444033
0.2362419374710296
0.00876843251632709
-0.003295296715351123
-0.5145500808378869
-0.1861825282655635
-0.08189821205221008
0.5815502574363162
0.138331929802904
0.3458195827110652
0.2258577697263764
-0.5600136410351286
-0.2025793477940207
-0.2219279866988677
-0.2357627891163804
-0.05999005663601178
-0.6958999973138995
-0.1943281862971815
0.306304729415056
-0.2011571468421189
-0.01121659262401038
-0.1725357347745823
-0.009161038617357805
-0.1562870024957831
-0.4331447988332071
-0.07667000014060388
-0.1978027919146908
-0.0710531742306646
-0.08733045407771478
-0.1464154941639498
-0.0733598048999714
-0.45638549416292
-0.4159776702911639
-0.02641401497873822
-0.07400375646229942
0.3271989125564116
-0.245829543038998
-0.1856941256648733
0.5255388260443068
-0.2088051336034944
0.0177011580352655
-0.4478481001110461
0.0467086015630512
-0.0623893815053561
-0.1472884647065926
-0.5808094205091549
0.1617698864269936
-0.5820091010567732
-0.5324697038361704
-0.1060663120999787
-0.5057428938863973
-0.03748413243526581
-0.1388922916799331
-0.4088718386771711
-0.01632425280848595
0.2865096697940829
0.489554803881102
-0.1577743350049309
-0.008410104036315638
-0.07418348212318984
0.5253718530898203
-0.03353539220796597
-0.4371182295125202
-0.03288255865070375
0.460605584013543
-0.01447654518304323
-0.5414084538028939
-0.2467210746352747
0.1757961493279311
-0.308774121887022
-0.1777803551521952
0.05166077636377593
0.03394705453862792
0.05408986982245141
-0.2975660020024302
-0.157632736721157
0.4127866126829871
)
;

boundaryField
{
    FrontBack
    {
        type            empty;
    }
    Top
    {
        type            zeroGradient;
    }
    In
    {
        type            zeroGradient;
    }
    Bottom
    {
        type            zeroGradient;
    }
    Out
    {
        type            fixedValue;
        value           uniform 0;
    }
    circle
    {
        type            zeroGradient;
    }
}


// ************************************************************************* //
