/*--------------------------------*- C++ -*----------------------------------*\
| =========                 |                                                 |
| \\      /  F ield         | OpenFOAM: The Open Source CFD Toolbox           |
|  \\    /   O peration     | Version:  2412                                  |
|   \\  /    A nd           | Website:  www.openfoam.com                      |
|    \\/     M anipulation  |                                                 |
\*---------------------------------------------------------------------------*/
FoamFile
{
    version     2.0;
    format      ascii;
    arch        "LSB;label=32;scalar=64";
    class       surfaceScalarField;
    location    "57";
    object      phi;
}
// * * * * * * * * * * * * * * * * * * * * * * * * * * * * * * * * * * * * * //

dimensions      [0 3 -1 0 0 0 0];

oriented        oriented;

internalField   nonuniform List<scalar> 
1171
(
-0.9279068231354487
0.9279068230089002
0.7872668963173578
-1.098828798556114
0.311561902253506
-0.1937873874825917
-0.7677633291612949
0.9615507170678438
0.0720931837625672
-0.1177074492436417
-0.2119202845943011
0.3296277341124305
-0.7872669188663641
0.06926868469544105
0.7179982341956046
0.8106296805075351
-0.1774996111300866
-0.6331300692783972
0.8740567173272988
-1.043556995322004
0.1695002780965546
-0.2847751668346828
-0.0982419257427415
0.3830170933786999
-0.0362615781549262
0.5484412927882981
-0.5121797148332278
-0.5082992927720937
0.8296676235848019
-0.3213683313515863
-0.4024826147690758
1.045541977537524
-0.1714852657288541
0.3951414055874145
0.04982398023885695
-0.4449653860111112
1.046297184787141
-0.0007552100100317302
0.4466408661458514
-0.05149947063275627
1.056773444788645
-0.010476262737243
0.5791803834784216
-0.7729677710504821
-0.7241898816179413
0.556970319971842
0.1672195615876227
0.2174601014954465
-0.7257593854768666
0.5498339510393212
-0.9224718716352623
0.3726379190767323
-1.094210506864173
0.6865184092073361
0.4076920980066293
-0.5954039987492841
0.5591424154050222
0.0174568674043822
-0.2560315985901042
0.2385747280381139
-0.02371341992120274
-0.5245703509817787
0.5482837734643049
0.3998776173634786
-0.4981195383156478
-0.9187977167705856
0.9415733557377475
-0.02277563905198084
1.06784973043678
-0.01107628747174685
0.9351698652579064
-1.116952462578085
0.1817825972986594
1.067458633520866
0.000391095672419057
-0.6642634918907829
-0.05992639719211663
1.26202967604108
-0.8644827423157195
-0.3975469336731824
0.1486609155890344
-0.1094726299490027
-0.3252803808954636
0.4347530113659899
-0.2856163025777099
0.1916863651476592
0.09392993871741234
-0.5834518243271581
-0.5153769594692863
1.014151541392754
-0.07898167857039756
0.009894804336158256
0.8254721286549014
-0.8353669330014784
0.5717312440139216
0.6902984318535677
0.438968661120088
-0.0309477650718089
0.430825383192177
-0.8078543880506629
-0.1026246490372889
0.9104790370159795
0.5025873222415483
0.2540452553514675
-0.7566325777584378
0.004004917717356446
0.5311184056334972
-0.5351233231047006
-0.4899589646691748
-0.6042515362092462
-0.422874033987203
-0.6940784306080606
-0.02753135330850657
0.2706949172364839
-0.2431635625718351
-0.9249327974035056
-0.005209213336289168
0.9301420107523654
0.3078481180352076
0.07516898023613411
0.7620257714230603
0.04860391159455831
-0.5329394553120755
-0.06246454482078594
0.04622639522845835
-0.8540807776616594
0.07720641822544136
0.8618498420703344
-0.9390562603841185
-0.3472902585912584
-0.04069802226187053
0.3879882800582041
-0.6823830781923036
-0.2425497218867388
-0.6325102743678628
0.7097166934758881
0.6109142510202862
0.2187533773781209
-0.5431274880966901
0.9461147791674026
-0.7792360160793826
-0.1668787631744058
0.01743527779442147
-0.008049768447240202
-0.009385512621463792
-0.4031335199860215
-0.09498602041477415
-0.2420106853017712
0.8529249422175234
0.04792489972903613
0.3336026606079288
-0.3815275597221263
-0.4612706546010495
0.9638579830208089
0.6802150255614507
-0.7828396702378261
0.3178444045171549
-0.01484513387212289
-0.3029992746759182
0.930679230489886
-0.9306792304793418
-0.7826389782111369
0.1114618854594246
-0.3233821701791734
-0.7500159875037111
0.7599107903523737
-0.09120786947701086
-0.1427329181564182
0.2339407879928076
0.864894521641054
-0.03942239477299666
1.054590103324493
-0.8005448415667327
0.1864350392610239
-0.316097994017396
0.1296629550528594
0.8587438072261663
-0.0967180359256147
-0.6115205241715584
-0.03945038588515778
0.6509709100717607
0.1236557531327866
-0.2306445897952965
0.1069888342564851
0.8055541009744466
-0.9830537111763187
-0.4345148135052287
0.329198635037412
0.1053161783050407
0.5329374776144046
-0.5566509003144491
1.022101872941148
-0.4562824102098658
-0.5658194628265757
0.5992278354603552
-0.7192633587635291
0.06648217211108319
0.6527811875996189
0.1021112405667672
0.5701678734173035
0.05470762029642881
-0.6248754938284137
0.194848332705462
-0.08338643986471773
-0.4924875092571953
0.145197249807517
0.05035163679909141
-0.8866561278706447
0.8363044910287424
-0.4747463824997229
-0.7132877417561139
0.04902424885645224
0.4365265532924026
-0.005701176280331305
0.3000725916199527
-0.855299173248506
0.5552265809664408
0.4157425600909395
0.5842574399322192
0.5606380025562645
-0.5144116052312984
-0.3657693054001271
0.03793165907580611
0.3278376500212538
0.6813004470415263
0.249378783682314
-0.5676061033065628
0.5716110253399823
0.1112461745419409
0.8748228045226457
0.01030570789556484
-0.6218262377223984
-0.7492049036788022
0.7995565377981136
0.5307174779624025
0.07148934489714152
0.3003431849817786
-0.3718325299533463
-0.1675623622219803
0.443980050315488
0.08713835609929114
0.8741808420417174
-0.8003127731490003
-0.07386806912387787
0.635533509052614
0.3105812629217637
-0.430664866995349
0.5749948470573567
-0.5035055080892733
0.4170579306434972
0.1327760273808908
-0.04684957139311315
-0.5888593771412931
-0.1393453250439436
0.7282047023275127
-0.1496687981836083
-0.7810104307581116
-0.6110705071437456
0.3603106422701802
0.2507598668219104
0.6221752990638239
-0.6118695941364914
0.2384198624880958
1.011727872743316
0.04286223516914457
-0.7492049045206952
0.2199861936052519
-0.2025509299812448
0.6802150309253815
0.8020747780702633
-0.8020747780891732
0.8376318756249007
-0.8331976280570632
-0.004434247738020516
-0.4453464280049944
0.86108899365333
-0.1475513932268969
-0.3449361207561779
0.7347629518374349
-0.6685441903381705
-0.06621876134581586
-0.7342448619798342
0.1453854840353408
0.1390223486223604
-0.671961802536976
0.7828396753366579
-0.9504020374218231
-0.3654710713553339
0.2860415212104467
0.0794295480188278
0.145754248195993
-1.009783535367963
0.8640292871352857
0.4805287363863217
-0.04156007514520922
-0.308105277701628
0.5862822412306092
-0.2781769636935242
-0.7384204250870002
0.8841746707646753
-0.1570607269257008
0.7338904073495659
-0.8360929459246441
0.1022025378955631
0.9781470100962845
-0.5406355095940054
-0.4375115005362025
0.7552252038736325
-0.06485592540522091
-0.03625175572389519
0.1866540453973571
-0.1504022876901811
-0.7757522884056164
-0.8416982249662881
0.07393489558085514
-0.7500159877196745
0.5140978384042506
-0.5547958607844979
0.09425580433189486
0.7166934240760722
-0.8109492286431546
0.7536391508139405
0.1742676757045976
0.502902431264175
0.4970975687732965
-0.05483823836796115
-0.60720185930364
0.6620400980537249
0.8783504467185772
-0.004169604411855955
-0.755225203892753
0.7995565401758319
0.1914405967733467
-0.4474721900617117
0.01534314076618438
0.002009363099335041
-0.01735251039702081
0.5894798347762166
-0.4378520947847119
-0.1516277403256933
0.7179982472451576
0.01316045185999391
-0.1078078090884331
0.4384929419295039
0.1509868974750531
-0.01401728641408462
-0.007528310922563774
0.0215455982575954
-0.03315089000155173
-0.003100866731061783
0.2448733178017461
-0.2597184522370036
-0.9591355068218248
0.001944336054436423
-0.1595789666142388
-0.1205977644682763
0.09477507385514483
0.7218473024157799
0.7289582848439261
-0.1447008408523861
0.6650970991542781
-0.5708412921455598
-0.2119630171264946
0.398398053555386
0.6955581873583243
0.02244005990081919
0.2417166061398696
-1.074914232222267
-0.9504020312848951
0.3021469417329858
0.7599107899798427
-0.2091153098617512
0.0663823896195664
-0.7237916376963287
0.9096092385276081
-0.1858176010311257
0.4162060400608047
-0.02821775698342519
0.7714485644911981
0.280736633716357
0.3749933666024968
0.07164750508161588
-0.6587086815519565
0.6587086816039419
0.2148456329203486
0.6956334102713397
-0.05565337931832399
0.3892560462759952
0.3790996324501364
-0.01219642967737181
0.02753956926793369
0.4487978959207376
0.03173083874762375
-0.7384204284299858
0.5340356802074492
0.2007272688882516
0.3024089430723066
-0.1157549223864077
-0.6955581928918381
0.1795277185764712
0.7300815223839741
-0.01028827174094814
-0.8135990627509623
0.8238873345790259
0.6963723490579925
-0.791983055906034
0.09561070689142863
-0.7536391519241216
-0.1510747774248515
0.2121254805656894
-0.06105070114319085
0.07752813439078039
-0.1785240883479526
-0.1134922673014938
0.2920163556588561
-0.005028212997280947
-0.008989048727520666
0.7065895161484252
-0.7168777858226677
0.8861773551903432
0.07537336257070434
-0.3169142099454162
-0.5184810994444697
0.8353953100652305
0.1040760747147538
-0.1040760770626678
0.3239731725383077
0.4725658599200498
0.6175857381857421
-1.09015159855186
-0.1940913233904806
-0.5856379388606148
0.7797292622461919
0.01379885951672567
0.2201419212579629
0.3765409170290946
-0.2528851541401406
1.014931027549595
-0.5423651682726441
0.6671073427408437
0.9941399568142959
-0.3765542180039229
0.2289895245447567
0.8841746707806607
0.7126894027733378
0.2138393064471794
0.7277340492544703
-0.7810104310116297
0.3412913086251282
-0.278535996785199
0.2508666647865282
0.02766932862577721
0.8465355652871015
-0.003212847708919482
-0.8433227178728688
-0.7022131384714545
0.7026042342925374
0.5546535715061764
-0.7022131391364379
-0.7126894028018036
0.7026042332329284
-0.03466862263310871
0.9088119002952194
-0.02263454629356221
-0.6813004496606234
0.6123268171468769
0.06897363249690235
0.5385567130044884
0.5371324370189975
-1.075689149979225
0.4890161726705605
0.5259148551447197
0.5445962737943165
0.4581505627213677
-1.002746836649471
0.4942532807023971
0.4998866760112238
0.6123268189007428
-0.5255528517293122
-0.4656399033345798
-0.556755701119936
-0.516219166763898
-0.1193995141538392
-0.0124296434929267
0.01242964484948464
0.5125071094191864
0.5236650229928188
-1.039884190065213
0.5733128350426906
-0.2729696571212166
-0.8847314783360234
0.3440959703968687
-0.6331009992558545
0.3905512760538054
0.002220709099955768
-0.8268508289675254
0.8246301197495716
0.4208530178511292
-0.0203256125905593
0.8668611793426878
-0.949424484542106
-0.8330562727861177
0.05384101983665084
0.7792152529223915
0.566702875635689
-0.4399342339362836
-0.1267686409335472
0.6502124729196425
-0.729194151637804
0.888110683342469
-0.8300741051216654
-0.05803657793510667
-0.01191443300447533
-0.7883983393789509
-0.1102479432405697
0.7121182128231286
-0.6018702696117915
-0.9378424767380104
0.9259280431259868
-0.7243739527959711
0.6907765555747082
0.03359739712481528
-0.8099510912104596
0.03695424392158812
0.7729968474819285
0.06187767121471455
0.04219841216924485
0.4328486311228668
0.06131380384267521
-0.8517091496217313
0.7903953454481286
-0.644803125485891
0.5899648866467622
0.8886672441401097
0.07169392953891003
-0.9603611740466488
0.0556109725668198
-0.04864304113714542
0.37648067667839
-0.3817684897499448
0.06567048990682195
0.8416818707251426
-0.8394611637152892
-0.7345777304284886
-0.8156601975322264
0.02726185765378739
-0.1632218086644671
-0.8519328943277159
0.02185878803647301
0.6221714009929832
0.04292570001162741
0.03323341364084138
0.5334694559376352
-0.809783379121949
0.8467376213360134
0.5658194651402721
-0.8471764456397294
-0.8661485460640791
0.04266335364206657
-0.03013372763547602
0.8367628585561263
-0.8066291308682686
-0.02730277962059719
-0.7647114592490543
0.5443227380173011
0.1520496122391611
-0.02697947728380085
0.89384065593705
0.9797690635595131
0.8627854403335338
-0.8409266538042003
0.1478455722857804
-0.1478455767772942
-0.1181579470782189
-0.4759089946039973
0.0359747605745613
0.2702813727954625
0.03186556958935131
0.3881538139797473
0.866537874272454
0.007914892236761591
-0.01294310721871576
0.6585909441180752
0.3414090559276156
0.7836390636262068
-0.583451821863526
-0.7781047730312333
-0.8098419798102946
-0.6798285953496188
0.6798285953214478
-0.1679867331700577
-0.1553954330107436
0.6022719092042065
-0.8120031045865282
0.2097311954072746
-0.493929788513814
-0.5689649345310593
0.2780720441082573
-0.9721504758774298
-0.9009480604964104
0.8429114808498365
-0.8123274321104775
0.8395892886022347
0.6487036281572226
0.1341563210199726
-0.7828599491792481
-0.7762445781251515
-0.1462325218998625
0.7244463467841895
-0.5782138247985623
0.03441018640594954
-0.01300132594342365
0.01719290329661902
-0.004191574788720089
-0.3540896239449297
-0.1218193751135447
0.8803439531261561
0.7478926925527286
-0.2465516959122722
-0.5013409965304794
0.6211240452021671
0.6855594665879206
-0.4707138312859011
-0.0001399283662953483
-0.2854763750469988
0.01899152099006375
0.7501843892673163
-0.769175910253507
-0.3234468482470289
-0.07319209030439291
0.07624575119071059
-0.9632711919785738
0.1199484739864253
-0.6778467843697167
0.05251664209205801
0.6402224466579985
-0.6927390885926353
-0.7561724702916961
0.0783256858542567
0.5880976627619969
-0.6612897529392169
0.1575086726020608
-0.3360327574962183
-0.7705779876765267
-0.0056665904523996
0.3711300336423027
0.6005437993027178
-0.02554895496745098
0.02004456731102009
-0.02004457016751365
-0.01995797144199887
-0.04847356858584548
-0.2300624239482164
0.02809788400349435
-0.02018299966916286
-0.7276522790389223
0.2792565806954529
0.6805277372813715
-0.6888263616991083
0.008298624861599661
-0.5942697729616403
0.6467864122883661
0.6536028545059414
-0.06550518597869996
-0.6309733043643758
-0.1251991638820499
-1.050685488448297
0.01103952236640088
0.1368060441028701
-0.7086607482510596
-0.7412212463860426
-0.7633644081540408
0.3658174746611859
-0.4093348413060002
0.461351830241299
-0.05201698972434392
-0.6641378449732903
-0.04452290296637689
0.5017962282972535
0.7306841264669134
-0.2350578399341918
0.1144600807212862
0.9689377781119786
0.4466285293526688
0.1334660509088167
-0.5800945803494177
-0.6771849938006836
0.0130471512468384
-0.04480000717114264
0.03179868037850169
0.6362883329838767
-0.7756336619971579
-0.001703590687052149
0.001703588595374637
-0.6012499987180905
0.6487142499087734
-0.04746425083998167
-0.6439515841610933
-0.1131519363990409
-0.6714917903747429
0.05919054532032753
0.6028495576157709
-0.1372758965051032
-0.8177243119991735
-0.5678522304950673
0.5665950958244723
0.001257137713629992
0.6298433254589787
-0.6215446970521341
0.3225197400075337
0.2139815326707866
-0.536501272727449
-0.1049329125141099
-0.6014228073322802
-0.09131628082822495
-0.1546214669202899
-0.5086616808866389
0.4041051392960626
-0.4990911585174676
0.1269194135379209
0.6783827696399112
-0.8053021833079478
0.5992278354485695
-0.3671770181840852
-0.04215782703374642
0.08274851750869321
-0.5914101977297546
0.5516044526548034
-0.04063416308049976
-0.5109702901379626
-0.312915653600398
0.3054677934986262
0.007447863397343472
0.4544471655888159
0.1188656712402382
0.05218004800874493
-0.3163760047764945
0.1573368879931641
0.1590391173658749
0.2275553349525598
-0.007569143026476501
-0.29303014229057
-0.3103038258374582
0.3528325005444214
-0.04252866591740819
0.7870558215112672
-0.6257248943356721
-0.01822668984492979
0.4992160172735397
0.2819959530504377
-0.5285476534492993
0.5775087410299639
-0.5775087410316522
-0.2897404813418269
-0.5864276577257286
-0.2955821352011512
-0.586427657799149
-0.594543700229241
-0.8385066163860853
0.1699624244810006
-0.5897501316236404
0.8211100292438307
-0.003191406091749499
0.1178177542258905
0.4827260419481512
0.09676320914298542
0.1859539913463849
-0.03649553010505625
-0.1494584604260399
-0.02315503285238027
0.5927186980443875
-0.9452962616897117
0.4268151624431474
-0.006157914473270824
0.004003352551631473
0.002154560150587033
-0.643719009767318
-0.1317876952932812
-0.4684228697451379
0.6018889180757665
-0.5036033686518862
-0.3276113004862136
-0.2637988923120839
-0.2711337012959144
-0.111662091360695
0.1116620937792053
0.1526959283251239
0.05942956399346426
0.1969935216673942
0.4537827021063349
-0.5722649178844171
0.1038420535873973
0.2447087464876229
0.4664576230866196
0.5335423781718629
0.6421449385869964
0.08867494172524762
-0.006370908300350885
-0.08230404017972948
-0.2770196663421122
-0.5407046455268213
-0.5517158040084935
0.1145968093783663
-0.1264783469290916
0.01188153863648559
-0.1055162231100389
-0.3855702805033695
-0.04787516686337837
0.6507247303938632
-0.4988641824440067
-0.1448548273157602
-0.3356610726086162
0.2902125135024164
0.1263344313044563
-0.6153641889266362
-0.204482265966415
-0.2625970498711034
0.002878615615469535
-0.4220869819323533
0.3237594898083319
0.09832749218741116
-0.09591605519293084
0.2916933359574224
-0.8959448725678882
-0.4576559413516993
0.6275696984171364
-0.7731578419720194
0.6682249295576056
0.3406130128098228
-0.1242817173881093
0.2241616160092507
-0.09987990010254408
0.02524171375357197
-0.5862949508307066
0.02898437689220423
0.5573105735047135
-0.9006465501770932
0.5475877932021507
-0.6657457404897037
-0.1023847815583406
0.1098476470613603
-0.1098476520529367
-0.3165159330902502
0.3609461695633852
0.01553450836227271
0.03093179915086886
0.05774313147434747
0.505168520372238
0.6633364374726738
-0.7372045060786698
0.03294117326174264
0.02202726913781839
-0.001982684780230671
-0.00724283394282501
0.007242836378974616
-0.4155704900575878
0.534436159463507
0.01559200243865692
-0.01559200224659286
-0.7923966209503784
-0.06117658530780956
0.123054256161916
-0.4572902795683105
0.5611323303101562
0.4522488959707305
-0.4997131467585327
0.150187010744699
-0.1501870147803648
0.03163667129143036
-0.004097097956995325
-0.04245513784831229
-0.9755994594879462
0.5380879608758684
-0.4675874780532666
0.04219841128038122
0.5148304922304536
0.03090206219289099
-0.5457325547206523
-0.6163326967913796
0.117468515485285
-0.3291964085075604
0.0134761310957981
0.3157202749581464
-0.1555745590613396
-0.07948329638219125
-0.5409648349564121
-0.04533011510412235
0.1368060498574156
-0.03995874238737347
0.03825515611274398
0.08056819557852139
-0.08056819125338904
-0.5309285826205818
0.4883999236038815
-0.4147509088637407
0.1613211153660483
0.6223179483361094
-0.09736853904909644
-0.00285167817295437
0.002851679619620526
0.5329397869838809
-0.08189473421898241
0.005771578008215971
0.02695840278335988
0.03495556888134513
0.6846147922793518
-0.7665095264963283
-0.6528114074961071
0.6345847088638175
-0.1066412913605425
0.3135888397318424
0.7459094053105348
-0.01995796867234942
-0.2664480995808952
0.1506931800821533
-0.7446254267812021
0.4840921389564788
-0.4270207016800278
-0.101502196743362
0.003357907787856754
-0.01426697602469889
0.02172698577096917
0.4108304690746718
-0.121543853601413
-0.3894264379611812
0.6288025325133629
0.01967250330241726
0.01020506805380108
-0.01020506853982454
-0.3516424968604264
-0.0771458901814671
-0.5603491060665522
0.5571576998021831
-0.2377739712194288
0.4647383941537844
-0.1511498004494084
0.7303301844313773
0.6710443847247001
-0.03995874066962291
-0.6171782470445586
0.5632365761118762
0.2873896007445334
-0.2835138895111321
-0.003875711174033745
0.5386686551033085
0.09340093730557227
-0.03905113887929249
0.1960768024047393
-0.1570256628987776
0.1196193368989192
-0.119619331576863
-0.8587054147851725
0.002341422164095705
-0.1136070851724997
0.1405654856833874
-0.1316573917597453
0.131657394998443
0.0220272659605471
-0.02280963125962615
0.6699608938753282
0.06012062650662407
-0.3227351603533724
-0.0628351204717011
-0.4712345343282703
-0.04827146939306657
-0.1513461130866781
0.1513461173973013
-0.05066735647488749
0.1435803952227996
-0.1435803991685568
0.1361696201610665
-0.1361696154863838
-0.3159878987314741
-0.1146769682312349
0.2261435589550439
0.1030550774833946
0.03481807809954744
-0.8211349867036064
-0.1984524807612534
0.1700194408000691
0.02142115939948558
-0.2645783035912721
0.1260811567908303
-0.1260811602670745
-0.4142265145282655
-0.08486464608298482
0.23594778890826
0.002626946227232154
0.04060945451592098
-0.5438212339894916
0.5784898565968664
-0.03502110756083572
-0.0156462504324245
-0.02684666809210114
0.02274956486866686
0.006606619666417101
-0.1846867521094335
0.1780801320735227
-0.1086875420053175
-0.2273452188256313
-0.1444781970024279
0.1444782010536708
0.07262537158397492
-0.07262536944987892
-0.01912806824946924
-0.1085680886474212
0.1276961549321274
0.2387130520285262
-0.1832527003470298
-0.02874959417786565
0.02676689957278321
-0.1347604314246288
0.6231603509957611
-0.03903670880577518
0.42637188861917
-0.04339142302125785
0.0649370211738577
-0.1530462514606421
0.1530462562714169
-0.6367613590586675
0.3083313554418831
-0.07934183407848844
-0.2342217912636594
0.003577214200650535
-0.120738910419034
0.1613483663339289
0.1959447082043287
0.09607164991343425
0.09695911640781202
-0.06200354676005925
0.07296762669361963
0.04162917941848687
0.06407830278104812
0.1059411396773429
-0.09794046111246082
0.212400558111286
0.01190866187700568
-0.1181234471901124
-0.09972363094528149
0.09661713880346015
0.003106488033822273
0.01182220712880067
-0.02371893018589644
0.03755840028499247
-0.03755839993056029
0.07533789204183847
-0.05515773888852326
0.05515773966259332
-0.2244315954606964
-0.05318644477331517
0.01157802207108556
-0.1030528509679871
0.01655028410158448
0.1086684574210158
-0.1086684595765664
0.2942722046593838
-0.2711236173389485
0.1624360731381848
-0.05107116531203387
-0.2200524539353057
-0.01712402558446731
0.01712402437696541
0.3675823818522753
0.2851988007199358
-0.5279509181518278
-0.09396009455633245
-0.03251825544775994
0.5289034888732764
0.2118663843960717
-0.1703764593469185
-0.3796109463876606
0.07648460251839027
-0.1473793377996045
0.1869213568388006
-0.0395420178220602
-0.06703927557053015
0.06703927397013772
0.8223940078100527
-0.5605156088265533
-0.00631353346584143
0.0181357387889301
-0.01999529692119116
-0.2871831226842886
-0.01749923942639614
-0.01282079679037239
-0.1320700889883636
-0.5722160272661797
0.5560991843730028
-0.5693723758530106
-0.006867919989966664
0.1021757671689442
-0.001700136551349374
0.01687663304875657
-0.1673746335982555
-0.3362163452617496
0.2331634937112226
-0.05419502511543792
0.0350669581878556
0.1319486298527072
0.173519163422033
0.3398823465507899
0.27609856675231
-0.2777987051620594
-0.06146846892623074
-0.1552344904606251
-0.2207456641515799
0.07462938852236926
-0.01055108013338494
0.2136333716114169
-0.1967567397003535
-0.08629271029192583
0.1592603404251368
-0.3553908456621808
0.2080968240333883
-0.1915465395639861
0.08957166295916691
-0.4789980968560832
0.1741005601093773
0.1704726791468749
-0.2567653902186486
0.07324019413191264
-0.1947381245692535
0.1772388860514051
0.01741269155637496
0.1418476509342493
-0.03956574189773681
0.06575607017882856
0.4671837177707316
0.02043436998544746
-0.08349467448694939
0.05378515844755434
0.1262985126870788
-0.2602876804135572
-0.2309001662687597
0.5597417152680587
0.1572326079622163
0.07871518474381591
0.07483426496316412
-0.0309630996911114
-0.01110668864134769
0.007230964016962697
-0.03271602968411574
0.1708098552199275
-0.1776777763730727
-0.06176769549445471
0.020453369408565
-0.1471170294066496
-0.0528904692636137
0.1506328618681438
0.277049633659123
-0.03899793302056789
0.01164287894307238
-0.2555629772179145
-0.1326697469801306
0.2361431668712228
0.1785171415747637
0.1298142179696891
0.02208682880291909
0.08865944985498908
0.05240913334545963
0.4527593869974414
0.01501514379048691
0.09772626802229308
0.04326710491168082
0.07208399704893043
-0.1153510984813339
-0.2427521200840265
-0.2006039663171355
-0.01944849117145437
-0.2019484647189246
0.2750114684231802
)
;

boundaryField
{
    FrontBack
    {
        type            empty;
    }
    Top
    {
        type            calculated;
        value           uniform 0;
    }
    In
    {
        type            calculated;
        value           uniform -1;
    }
    Bottom
    {
        type            calculated;
        value           uniform 0;
    }
    Out
    {
        type            calculated;
        value           nonuniform List<scalar> 10(1.033612446962225 1.064109565181224 1.022395604440698 1.020168136706681 0.9952830002068389 1.016105842878378 1.03617213259082 1.062894722954082 0.8672492231278223 0.8820097930086285);
    }
    circle
    {
        type            calculated;
        value           uniform 0;
    }
}


// ************************************************************************* //
