/*--------------------------------*- C++ -*----------------------------------*\
| =========                 |                                                 |
| \\      /  F ield         | OpenFOAM: The Open Source CFD Toolbox           |
|  \\    /   O peration     | Version:  2412                                  |
|   \\  /    A nd           | Website:  www.openfoam.com                      |
|    \\/     M anipulation  |                                                 |
\*---------------------------------------------------------------------------*/
FoamFile
{
    version     2.0;
    format      ascii;
    arch        "LSB;label=32;scalar=64";
    class       volScalarField;
    location    "57";
    object      yPlus;
}
// * * * * * * * * * * * * * * * * * * * * * * * * * * * * * * * * * * * * * //

dimensions      [0 0 0 0 0 0 0];

internalField   uniform 0;

boundaryField
{
    FrontBack
    {
        type            empty;
    }
    Top
    {
        type            calculated;
        value           nonuniform List<scalar> 
15
(
142.272572996016
133.5648927806009
138.0682186884594
144.3988056834223
159.7688730771013
131.3682981208115
140.1192877245673
135.353720585995
153.4326471683311
135.7430782897655
136.0898453814166
136.7729230077434
125.242223073465
132.9005723069907
123.9456852466038
)
;
    }
    In
    {
        type            calculated;
        value           uniform 0;
    }
    Bottom
    {
        type            calculated;
        value           nonuniform List<scalar> 
15
(
155.5655161523514
158.1130921701269
141.0949279147157
142.0725875958159
141.1852535052426
148.4479812458137
142.7077682000318
143.1681109340424
143.4243277236213
134.0588169762696
125.7353109958819
141.5548521645968
122.4128331392985
123.4923590533289
124.1422399290147
)
;
    }
    Out
    {
        type            calculated;
        value           uniform 0;
    }
    circle
    {
        type            calculated;
        value           nonuniform List<scalar> 
32
(
56.35280561819228
22.04824464057615
65.30755846303364
24.04984503440438
19.23468580037634
56.19901493140726
56.80206104494894
24.17517603223031
22.294602561433
65.52583001313552
40.18109113644996
63.03837224185858
50.32462727609254
13.83921752027995
23.59093032900808
19.1779240696713
38.89989677677329
59.61059815483168
61.02707184648994
25.40464461043896
65.73438648815596
63.80517077131573
62.96696197147602
59.90436504866089
64.11483656512489
45.98760793768444
66.3755043813882
32.11951488631718
37.97299977759892
55.72987436784628
21.17455551085447
43.12905788216197
)
;
    }
}


// ************************************************************************* //
