/*--------------------------------*- C++ -*----------------------------------*\
| =========                 |                                                 |
| \\      /  F ield         | OpenFOAM: The Open Source CFD Toolbox           |
|  \\    /   O peration     | Version:  2412                                  |
|   \\  /    A nd           | Website:  www.openfoam.com                      |
|    \\/     M anipulation  |                                                 |
\*---------------------------------------------------------------------------*/
FoamFile
{
    version     2.0;
    format      ascii;
    arch        "LSB;label=32;scalar=64";
    class       surfaceScalarField;
    location    "143.5";
    object      phi;
}
// * * * * * * * * * * * * * * * * * * * * * * * * * * * * * * * * * * * * * //

dimensions      [0 3 -1 0 0 0 0];

oriented        oriented;

internalField   nonuniform List<scalar> 
1171
(
-0.927902702396204
0.927902702490369
0.787277895057038
-1.098868038142019
0.3115901431458925
-0.1933569350484077
-0.7678020010248527
0.9611589356713146
0.07209729904686678
-0.117772076316386
-0.2119709150045932
0.3297429907717356
-0.7872778843289304
0.06926609675081073
0.7180117875596892
0.8106229302592277
-0.1775417159709812
-0.633081214407244
0.8740228962232168
-1.043608020523926
0.1695851242347451
-0.2848128021548068
-0.09831525398018949
0.3831280556168226
-0.03633147456415597
0.5484783971215255
-0.5121469224169741
-0.5087184490272713
0.8297932516323515
-0.3210748020646377
-0.4025848843256964
1.045526709482346
-0.1715038157404062
0.3948185581538193
0.05011252871335714
-0.4449310873480665
1.046271016904655
-0.0007443082411606512
0.4465867273412902
-0.05176815126894563
1.056729564154354
-0.01045854700223398
0.5794813515532581
-0.7728382873083954
-0.7241430559969636
0.5569082850610094
0.167234770958799
0.2166274650863728
-0.725345915987164
0.5497646333345605
-0.9224431990632337
0.3726785666709375
-1.094216642787808
0.6865439235014829
0.4076727190063535
-0.5954216562870627
0.5590901789347559
0.01734255134941803
-0.2558929879544975
0.2385504388909713
-0.02350751551441037
-0.524806289397715
0.5483138023403715
0.3998961661602243
-0.4982114241528063
-0.9188296365862346
0.9416154019550914
-0.02278576527965162
1.067885947237866
-0.01115638315088844
0.9351405191040696
-1.116925569852966
0.181785050723774
1.067480520100031
0.0004054272593953599
-0.6642606425334457
-0.05988242148532744
1.262011742525227
-0.8644794932885697
-0.3975322492859478
0.1486508826040164
-0.1095903917478349
-0.3251966783126057
0.4347870697555449
-0.2855894124378262
0.1917922445008897
0.09379716703473577
-0.5834775306519976
-0.5153905135329485
1.01414860865847
-0.07900808739343015
0.009886796281311155
0.8254753013909887
-0.835362097641753
0.5717077262599362
0.6903040204445036
0.4388879971774285
-0.03103448622759187
0.4309306494350837
-0.8078957086592746
-0.1026210719872431
0.9105167806680526
0.5025384452342841
0.254086380846439
-0.7566248259328133
0.004209874315302574
0.5312800732298332
-0.5354899480287636
-0.4899756658643529
-0.6042409729356304
-0.4228588139157006
-0.6940667526657796
-0.02754503150258089
0.2707673677571071
-0.2432223370007048
-0.9249278226607208
-0.005207018861631647
0.9301348415352048
0.3078725902593491
0.07525545993335082
0.7619436420958136
0.04867929483792977
-0.5329167933072158
-0.06250486837444587
0.04619466894802654
-0.8540903717349843
0.07731518329094896
0.8619092488677316
-0.9392244320720988
-0.3472403583448641
-0.04063183827406811
0.3878721973906885
-0.682355234463954
-0.2425725862354036
-0.6328162277710313
0.7101314098927857
0.6114170376043744
0.2183762130099946
-0.5431814068804035
0.9460658947696855
-0.7791847179014721
-0.1668811767792216
0.01633958281587148
-0.00691895539169878
-0.009420624768424752
-0.4031835288047533
-0.09502789490031682
-0.2419887768738976
0.8534058121805354
0.04816392006808357
0.3334648144171696
-0.3816287347963402
-0.4614145177049726
0.9639529567923689
0.6802500018951828
-0.7828710675718935
0.317802815708806
-0.01464739246678896
-0.3031554195190629
0.9306744896457129
-0.930674489645996
-0.7824893255146887
0.1115188904695636
-0.3234898049866872
-0.749999989992965
0.7598867868928962
-0.09127884187647223
-0.1427636155781722
0.2340424574802918
0.8648779753846548
-0.03940267356071173
1.054623636309081
-0.8005372582724183
0.1865161681869239
-0.3161949630050788
0.1296787944543925
0.8586411829275346
-0.09669753711883995
-0.6114682950936798
-0.03943948895751127
0.650907784050638
0.1236102481290733
-0.2305630622457749
0.1069528157107997
0.805544158540794
-0.9830858660556706
-0.4343878828553249
0.3291393699594147
0.105248512763089
0.5331423140134637
-0.5566498260263084
1.022079125769867
-0.456276889554156
-0.5658022361208997
0.5992203091876293
-0.7192593648192278
0.06645541078667321
0.6528039533785202
0.1020163468450949
0.5700681204368923
0.05474249442832076
-0.6248106148184003
0.1949269246695696
-0.0834080392829656
-0.4923674414136039
0.1451270896884725
0.05034101801444115
-0.8866093283574773
0.8362683103530424
-0.4746937662610505
-0.7132521060051795
0.0489914596517294
0.4365543348006374
-0.005623685224055501
0.3000938123247696
-0.855303977739902
0.5552101658878592
0.4157477518413683
0.5842522481043747
0.560639757126895
-0.5144450856647281
-0.3659667503314925
0.0384499266687461
0.3275168220082805
0.6812823455797391
0.2493921472700234
-0.5677246564036585
0.5719345310662192
0.1113576483007683
0.8748102445031141
0.01030421760626253
-0.6217725161795085
-0.7491749537272205
0.7995159702512783
0.5306286223031762
0.07140865909486625
0.3002513902336594
-0.3716600493585479
-0.1675464423344236
0.4443360081442415
0.08694404677164883
0.8739699038149149
-0.801083126176944
-0.07288677746643372
0.635522693490156
0.3105432030761769
-0.4307285704674559
0.574822458216628
-0.5034137954259109
0.4170453282380685
0.1327193040533358
-0.04683254350091701
-0.5890281046622983
-0.1394806275629047
0.7285087320982309
-0.1496691223975264
-0.7810053640958153
-0.6110707805501203
0.3602536969852158
0.2508170823626759
0.6221381849151899
-0.6118339697201096
0.2384641530313141
1.011753277171769
0.04287035282843343
-0.7491749514972568
0.2204730835214343
-0.2041334993116466
0.6802500049092669
0.8020395478628509
-0.8020395478208168
0.8376178712742101
-0.8331680441644269
-0.004449826987876568
-0.4453415163969274
0.8610892648141556
-0.147519013183135
-0.3448484223240944
0.7347669493161846
-0.6685560271196264
-0.06621092230191916
-0.7347476089120646
0.1457195122288511
0.1390701473899141
-0.6719869443235906
0.7828710675214208
-0.9504175099589481
-0.3657472136620338
0.2857931954056198
0.07995402098344839
0.1457338233933674
-1.009848369798052
0.8641145464234524
0.4805198908285933
-0.04163189372282355
-0.3080932102814406
0.5862586531334856
-0.2781654427761732
-0.7384575528291198
0.8841913716722236
-0.1570465308695679
0.7335694554767004
-0.8359846709518666
0.1024152160943425
0.9780376294046769
-0.5403375390390822
-0.4377000902971583
0.7552070082911122
-0.06486423820557512
-0.03626151609354991
0.1863247403143931
-0.150063225912185
-0.7757569806882829
-0.8409642710026973
0.07316227043775689
-0.7499999913364838
0.5140697155609708
-0.5547015465509981
0.09530786260324038
0.7163581496593834
-0.8116660121130704
0.753624781471571
0.1742779234728338
0.5029098697959669
0.4970901301846945
-0.05509319578880048
-0.6077536036933019
0.6628467988154264
0.8782993050421158
-0.004329400800968167
-0.7552070082799166
0.7995159718726941
0.1915062927097329
-0.447399282447275
0.01454915309807391
0.002260688617372543
-0.01680983799705877
0.589447514339368
-0.4377391950044438
-0.1517083192719225
0.7180117793579067
0.0128238743303525
-0.1073948189065861
0.4386113784083024
0.1508361372672674
-0.01420844696539018
-0.007672103690585151
0.02188055019019127
-0.03289890656357866
-0.003362585942067195
0.2451513559198355
-0.2597987454130367
-0.9590860755561189
0.001904897966186881
-0.1595701037080253
-0.1205958651762077
0.09477274541594458
0.7219641769017716
0.7289482641534009
-0.1446960172731192
0.6663608641976873
-0.5710529972781072
-0.2119751810077421
0.3984913587717907
0.6955872150867504
0.02242456426700213
0.2417412919667097
-1.074909336967439
-0.9504175065918713
0.3022489082095834
0.7598867864339905
-0.2091881598049282
0.06642455165784865
-0.7238690709354557
0.9097125904237162
-0.1858435193053989
0.4161461713577269
-0.02827397122671145
0.7714040714413367
0.2807406422665528
0.3754574801638678
0.07112923173892258
-0.6587111558763565
0.6587111558367534
0.2148497410816208
0.6956670450026996
-0.05582098776987451
0.3892857919463173
0.3789660811485512
-0.01209343348873989
0.02664260054088113
0.4486713046841994
0.03184858252359474
-0.7384575554324598
0.5340156927015205
0.2007512565162964
0.30177723428374
-0.1154524819076702
-0.6955872075117976
0.1794934827429706
0.7302191005912863
-0.01029078514220366
-0.8135817347490639
0.8238725198193056
0.6963861452380344
-0.7919686543842962
0.09558250908212279
-0.7536247808979871
-0.1511579556309341
0.2122375971877666
-0.06107964291274776
0.07755680343361317
-0.1783767909437598
-0.1135297873130975
0.2919065777324723
-0.004926522081908368
-0.009281938656039159
0.7065644028944427
-0.7168551864975513
0.8864161987175966
0.07474273615369463
-0.3167116462849705
-0.5189741721908719
0.8356858179436663
0.1041357516889456
-0.1041357508282165
0.3242431384812871
0.4724824538075784
0.6174087752151213
-1.089891228646905
-0.1940845479233995
-0.5856224884832855
0.7797070364015705
0.01383622013897921
0.2202062417133034
0.3764289742386854
-0.2528187328306533
1.01527417053182
-0.5427917156055555
0.6675622856791933
0.9939759511548284
-0.3765671744456016
0.2289099623560086
0.8841913674719148
0.7126875522610097
0.2138649754250074
0.7277504262136005
-0.7810053617419044
0.3412888401213386
-0.2793156222028804
0.2524683921937442
0.02684723370894523
0.8466746792460976
-0.002186227709745741
-0.8444884513861844
-0.7022290046991326
0.7026344321959914
0.5546584835939838
-0.7022290054973364
-0.7126875522315855
0.7026344323057686
-0.0345823469433155
0.9092171475280069
-0.02280095140211822
-0.6812823498597669
0.612309849497872
0.06897250037912123
0.5385313140315406
0.5372429089425508
-1.075774223023222
0.4884781327980302
0.5267960375362061
0.54511798743313
0.4579075245334487
-1.003025511877824
0.4936170106635849
0.5003589414879809
0.6123098520849293
-0.5255669219067789
-0.4657727342849196
-0.5567493361310538
-0.5155905369411912
-0.1196265171751974
-0.01247451422199121
0.01247451341525893
0.5122648954102695
0.5238223288865042
-1.039412865609942
0.5729391324721228
-0.2726877364436949
-0.8844916451747185
0.3441541066415302
-0.6330854233621387
0.3905128386764618
0.002052697967483474
-0.8263681125511099
0.8243154147211104
0.4208550502704319
-0.02107782937876385
0.8677525043508411
-0.9495278738635409
-0.8329055610519988
0.05388535861810513
0.7790202025119279
0.5664919763962136
-0.4400604529177069
-0.1264315241830644
0.6502351282709541
-0.729243213616075
0.8884346766033299
-0.8295001190010222
-0.05893455774757256
-0.01249876240495679
-0.7885843633842602
-0.1104034281200843
0.7119518558353544
-0.6015484277005515
-0.9383236220024261
0.9258248602657316
-0.7242994357845766
0.6904832999529728
0.03381613593148451
-0.8094092638757312
0.03610860269255648
0.7733006610555734
0.06190915234940841
0.04222659686131024
0.4328131136221777
0.06109319655523159
-0.8516667466466723
0.7905735503336628
-0.6451759302379102
0.5900827306595581
0.8884375145437089
0.07207442899831687
-0.960511943229449
0.05553195831677771
-0.04895221777431798
0.3764690545369976
-0.3818403871184786
0.0656454333356621
0.8415170186695851
-0.839464321158079
-0.7346665269723888
-0.8162686193629022
0.02768425732369892
-0.163417598062989
-0.8515505370220164
0.02205041822962687
0.6218842256113599
0.04447663784345271
0.03253950365830576
0.533952479748667
-0.810666504196726
0.8467751053109156
0.5658022372626548
-0.8474459443777228
-0.8662491885645723
0.04296795986751843
-0.02897903645516264
0.8363765001473045
-0.8073974637037979
-0.02723512323232538
-0.7636455662723886
0.5443151790687502
0.1520709679627182
-0.02570999288374602
0.8934624959681907
0.9797102223795591
0.8628231291192557
-0.8407727103125843
0.1478989798757126
-0.1478989766198505
-0.1180384510162888
-0.4743195234758372
0.03425907837712682
0.2702710925437963
0.03197781527482294
0.388281356447763
0.8662273713038455
0.008495215955355531
-0.01342174851865819
0.6585873469551676
0.341412653014458
0.7836505172809776
-0.5834775277714168
-0.7781127068153532
-0.80958369876004
-0.6798486671730847
0.67984866720118
-0.1680397476116118
-0.1554500706597746
0.6023261691278746
-0.8119141590560581
0.2095879899137549
-0.4939691746948892
-0.568944009593467
0.2780456950581174
-0.9721124478243177
-0.9006576112296008
0.8417230541040822
-0.8123448634929121
0.8400291215239916
0.6486823031178378
0.1341425780568605
-0.7828248811851235
-0.775767564602432
-0.1462890197379215
0.7245328763231874
-0.5782438566766072
0.03443024042575933
-0.01264985847462994
0.01691380642398312
-0.004263949709408349
-0.3539598162248295
-0.1203597066355811
0.8803718632251937
0.7480746071759553
-0.2463028552801435
-0.5017717522527356
0.6216430978124243
0.6856137296545838
-0.470763984959687
-5.641459728267934e-05
-0.2855329914651499
0.01748714000644925
0.750759160580136
-0.7682463004955834
-0.3234301445903199
-0.07324140716912275
0.07633052117836468
-0.9640322172974893
0.119543762553466
-0.677771581718401
0.0527589278179126
0.6400631053959801
-0.6928220333328169
-0.7560913488147714
0.07831976715530051
0.5881814211000345
-0.6614228283572565
0.1575615964459379
-0.3359383901891728
-0.7706644211461459
-0.005103143483528952
0.3711135989736212
0.6003444985563818
-0.02552204064548907
0.01959462390844497
-0.01959462152400658
-0.02014663247613374
-0.04833923887274941
-0.2309763848584278
0.02856767091342414
-0.02007241376230795
-0.726187787670828
0.2792554851486215
0.6804729729008141
-0.6887424076960044
0.008269434528922174
-0.593973466443123
0.6467324015659441
0.6537484360906239
-0.06556701668125184
-0.6308554217199756
-0.1252359257359043
-1.050718511069379
0.01103978799457267
0.1368592028784647
-0.7087006517551137
-0.7412588403094545
-0.7634272387111719
0.3658949937818355
-0.4085757042322838
0.4606954926439107
-0.05211978753742541
-0.6631442429573241
-0.04555640905372643
0.5017321320221521
0.7306846502273393
-0.235338647022734
0.1147427775128642
0.96913536670636
0.4467120328030478
0.1332495999959346
-0.5799616327535982
-0.677012625417591
0.01386838148503113
-0.04475922656432917
0.0321093849991918
0.6362777651346522
-0.7757583857959525
-0.001697483635933224
0.00169748531982375
-0.6012333337174607
0.6488572993655435
-0.04762396602173345
-0.6444731145787183
-0.1131921079876045
-0.6714957312496103
0.06002289567391205
0.6028239003971909
-0.1373217625564546
-0.8177847408307561
-0.5695421507950921
0.5669973018038177
0.002544846935326639
0.6292848911167941
-0.6210154517252175
0.3225422229966041
0.2139205500172892
-0.5364627729675552
-0.1049810764876128
-0.601370355011219
-0.09145167161931818
-0.1545212980328829
-0.50951926350819
0.4041112631796833
-0.4991391604398076
0.1269010855868648
0.678416323208535
-0.8053174086485951
0.599220309195476
-0.3671872225024044
-0.04138848541512934
0.08216271384907282
-0.5916819799092701
0.5515489869105415
-0.04063861064462037
-0.5109103758484118
-0.3130127132124834
0.3055728438780273
0.007439866855230932
0.4542830930149372
0.1186560340277691
0.0523780915094049
-0.316456755197874
0.1574300383861418
0.1590267163831497
0.22795076795737
-0.007477673414764211
-0.2928941023540461
-0.3101134736653293
0.3514149564445143
-0.04130148983848603
0.7871060452716486
-0.6255857816806105
-0.018887333131605
0.4992077487148949
0.2824342467911878
-0.5287371051058667
0.5775004457794537
-0.5775004457763657
-0.2897379175638462
-0.5864417777578311
-0.2955903922702881
-0.5864417777212988
-0.5946169452868361
-0.8385027924088847
0.1699467620157662
-0.591326696619378
0.8210998770311954
-0.00315255603122542
0.1176479521484468
0.4826965475666722
0.09677247716923147
0.1860248158587568
-0.03651161373195051
-0.1495132022289753
-0.02432940357827424
0.5923253464136907
-0.9449744332884519
0.4260002609461268
-0.006946374326524387
0.004065654017291303
0.002880722199502183
-0.6438108661817222
-0.1318175210794643
-0.4685388340880167
0.6017884371671869
-0.5035693968591449
-0.3276372793238693
-0.2640446782255671
-0.2711775985887613
-0.1115998289617493
0.1115998269986309
0.1527706516046151
0.05946694398903787
0.197064600599907
0.4532178225306406
-0.5719310507175309
0.1033922197877512
0.2455219937828843
0.4664860285464374
0.5335139706801193
0.6424608154930169
0.08877765898934792
-0.006198480053614783
-0.08257917135383439
-0.277049020840794
-0.5407357201476671
-0.5516188402907091
0.1146803896784145
-0.1265459863512054
0.01186559592935406
-0.10547143989105
-0.3854870306846863
-0.04848735683122884
0.6513112503668748
-0.4989328428702082
-0.1448780232985527
-0.334556225602101
0.2896837866812189
0.1269603123108013
-0.6166094055604524
-0.204551367766356
-0.262748258644816
0.002949506887875554
-0.4219994517873867
0.3238576205753674
0.0981418313718352
-0.09606101943164734
0.2917063475395907
-0.8959473205173138
-0.4575758514364482
0.6269818435561871
-0.7731890684931183
0.6682079919363283
0.3403335675011342
-0.1241459446749406
0.2239823046325268
-0.09983635907398761
0.02571694552718525
-0.586290631977783
0.02892334105702574
0.5573672911854057
-0.900631415450009
0.5476949009003725
-0.6657333516889775
-0.1032513786142493
0.1098975249268191
-0.109897521874447
-0.3165131655852427
0.360372204261396
0.01609685229856147
0.0305966803792558
0.05818098395482203
0.5051065848890085
0.6638909677926446
-0.7367777441563496
0.03285736274125357
0.02163103433850512
-0.002036419045325818
-0.007232212780053119
0.007232210928012735
-0.4150528362899312
0.5337088725957253
0.01565431343834071
-0.01565431354020302
-0.7924395279059697
-0.06122154298048471
0.1231306987096133
-0.4572796135768867
0.5606718363779697
0.4523133569430908
-0.499937326475329
0.1502415212276028
-0.1502415181495817
0.03164447586545421
-0.005001874923024565
-0.042542017751774
-0.9753808226017383
0.537680732288401
-0.4671726392153899
0.04222660258784106
0.5149077701563871
0.03084925643399197
-0.5457570264179953
-0.616393839080861
0.1174610027692557
-0.3291226340887531
0.01349154980349781
0.3156310860973628
-0.1557201609731072
-0.07961847055875157
-0.5409920099244466
-0.04529861301653744
0.1368591878948623
-0.03991013050743984
0.03821264874137806
0.080503981399314
-0.08050398357970458
-0.529647098669231
0.48834561939358
-0.4148045729682512
0.161319666190943
0.6223308510445077
-0.09726508457823063
-0.002680815427812048
0.002680814269892843
0.5329414520836905
-0.08265691953651289
0.005761769324940275
0.02696166581874995
0.03499437683723081
0.6847056980844874
-0.7673626177144804
-0.6526987927807174
0.6338114627486421
-0.1068004490023487
0.3137196155929358
0.7458359802901577
-0.02014663397188163
-0.2662522204687849
0.1507997421823722
-0.7446092309581824
0.4840266032746439
-0.4274622857679188
-0.1014860629843422
0.003323174839765046
-0.01426123915546626
0.02236917810900585
0.4108146632698693
-0.1215323107005629
-0.3893780583664577
0.6288053189891925
0.01970672785259686
0.01003058555470191
-0.01003058505107417
-0.3510903822579694
-0.07642926336006388
-0.5603088579080452
0.55715630193222
-0.2376757299101287
0.4647263409718216
-0.1511286514728193
0.7306100027913621
0.6706451164508772
-0.03991013199559836
-0.6174178953550793
0.5632502972462299
0.2867931138264584
-0.2826277000848789
-0.004165413172362443
0.5377504511144244
0.09340688837460132
-0.03904781128481501
0.1959776577101686
-0.1569298467171968
0.1195517910440818
-0.1195517943947702
-0.8586819277545734
0.002342552951355166
-0.1136565554042875
0.1406182226165749
-0.1315998813454079
0.1315998787492079
0.0216310394901209
-0.02282745682960975
0.6698791995831753
0.06033990020983739
-0.3226746783422096
-0.06281235183485573
-0.4712356942899051
-0.04776311515978186
-0.1512909791314024
0.1512909757975279
-0.05093470639533317
0.1436364153607166
-0.1436364122292027
0.1361098909553413
-0.1361098941857436
-0.3160498251617869
-0.1146787452946908
0.226069028204511
0.1030703457572634
0.03480940650286451
-0.8211573141063602
-0.1985433037678334
0.1699681025813245
0.02153819164382027
-0.2644378522527729
0.1261384191285393
-0.1261384163702618
-0.4142549189399011
-0.08488424516957774
0.2358495968936313
0.002700842543785081
0.04059385444713341
-0.543961823080939
0.5785441700175291
-0.03615908474848666
-0.01477561924725545
-0.02641713835595919
0.02141526096894159
0.006605093667334781
-0.1847528470944455
0.1781477537954218
-0.108705960430602
-0.2272324251115287
-0.1444230998500557
0.1444230966716177
0.07256312736147899
-0.07256312908824841
-0.01907015583143817
-0.1085522051582168
0.1276223624335796
0.2379156312199653
-0.1833339144025825
-0.02859342494884499
0.0265569998619338
-0.1337858358955521
0.6221314532320738
-0.03903670127266268
0.426885992984528
-0.04342165635258684
0.06530220518185853
-0.1529883086498841
0.152988305058898
-0.6368099996500676
0.3082326971073667
-0.07932273205892931
-0.2341476465469087
0.003584571842612019
-0.1206317632410936
0.1612256169541766
0.1959895079352217
0.09591706820240928
0.09704543325384184
-0.06205105723008331
0.07303994291733461
0.04164044590630625
0.06411674767266944
0.1058513550847261
-0.09840875767510818
0.213151522847901
0.01172806217647609
-0.1184812098742695
-0.0996019079877981
0.0964160570358009
0.003185854074918281
0.01160045206708965
-0.02371490928522786
0.03750082593017752
-0.03750082621879587
0.07534589541440607
-0.05522558335953483
0.05522558281935494
-0.2244103473988699
-0.05317899008254793
0.01161028054974737
-0.1030536067833368
0.01655811099868602
0.1087316276132076
-0.1087316259271944
0.2941313416827174
-0.2710357910986895
0.1623298337151032
-0.05108389520934477
-0.2199518979890175
-0.0170419872415118
0.01704198818304836
0.367613992344404
0.2851899673154461
-0.5280250037971403
-0.09395267625100827
-0.0325933073391734
0.5289336611700184
0.2114984736731961
-0.1703351438127278
-0.3794881850232547
0.0764906460236085
-0.1473032207431923
0.1868494503125498
-0.03954623055093999
-0.06709118603487481
0.06709118732051182
0.8223266263305352
-0.5604794779374325
-0.006384550052211434
0.01798500437489853
-0.02000006683886932
-0.2872675925334201
-0.01749799560044634
-0.01282321441960104
-0.1321187520175258
-0.5722500418776477
0.5561199340514312
-0.5693258709374859
-0.006867889997128577
0.1018511110031381
-0.001697320324614105
0.01687841452986416
-0.1673032960045997
-0.3361555284117603
0.2331019220923426
-0.05413245119516004
0.03506230412978818
0.1319985782475705
0.1735742701811285
0.3405182395453002
0.2759984038331626
-0.2776957227342279
-0.06138925783755409
-0.1552690220883332
-0.2206560910297306
0.07459127709512962
-0.0104745276934496
0.2135540910596327
-0.1966756757348754
-0.08629116624039239
0.1593311063442937
-0.3554053259432641
0.2080137232442665
-0.1914556126326179
0.08957275462190672
-0.478950815768482
0.1740262320120352
0.1705751320194391
-0.2568662990129124
0.07333052245415192
-0.1948109724801169
0.1773129762784835
0.01740678866164291
0.1419243224051902
-0.03957126065143063
0.06569607664498558
0.4672453748154792
0.02045882784466761
-0.08449835831064431
0.05364715605948897
0.1263569818436336
-0.2602023204638694
-0.230907015088901
0.5597436903181398
0.1571319732452643
0.07871762719098842
0.07472071437630211
-0.03097709607643211
-0.010705323393757
0.006539897373473606
-0.03269628940266842
0.1707429139454698
-0.1776108031120752
-0.06212917550604471
0.02017245329548241
-0.1471706622357906
-0.0528866531838332
0.1510223705413918
0.2770447144011525
-0.03915461808971434
0.01070995145493115
-0.2555063889508691
-0.1327974662201259
0.2362205696857822
0.1784421731967394
0.1297905268014554
0.02209848053559217
0.08858566631639955
0.05243617172785123
0.452670413204006
0.01491391606823312
0.09783957648891767
0.04317081261851458
0.07216455789630173
-0.1153353730503046
-0.2428350317912293
-0.2005406618189216
-0.0194112374992237
-0.2019060987273563
0.2749176241350526
)
;

boundaryField
{
    FrontBack
    {
        type            empty;
    }
    Top
    {
        type            calculated;
        value           uniform 0;
    }
    In
    {
        type            calculated;
        value           uniform -1;
    }
    Bottom
    {
        type            calculated;
        value           uniform 0;
    }
    Out
    {
        type            calculated;
        value           nonuniform List<scalar> 10(1.033596119524969 1.064098235416815 1.02252207042458 1.020413047578112 0.9951504321481605 1.015949478423133 1.036087224760178 1.062913184371324 0.8672383642641861 0.8820321699549372);
    }
    circle
    {
        type            calculated;
        value           uniform 0;
    }
}


// ************************************************************************* //
