/*--------------------------------*- C++ -*----------------------------------*\
| =========                 |                                                 |
| \\      /  F ield         | OpenFOAM: The Open Source CFD Toolbox           |
|  \\    /   O peration     | Version:  2412                                  |
|   \\  /    A nd           | Website:  www.openfoam.com                      |
|    \\/     M anipulation  |                                                 |
\*---------------------------------------------------------------------------*/
FoamFile
{
    version     2.0;
    format      ascii;
    arch        "LSB;label=32;scalar=64";
    class       volScalarField;
    location    "1999";
    object      p;
}
// * * * * * * * * * * * * * * * * * * * * * * * * * * * * * * * * * * * * * //

dimensions      [0 2 -2 0 0 0 0];

internalField   nonuniform List<scalar> 
808
(
-0.03566500112888891
0.04481139652698632
-0.0115286455754428
0.03527190537307594
-0.302880909788976
-0.05490740372844779
-0.0147845107583391
-0.02401021547591444
-0.1995668747917361
-0.08543882612478636
-0.01000010343501843
-0.2571111053140631
-0.03060922884894867
-0.01319709097369895
-0.1201111446569716
-0.01409548144517012
-0.1376470956125865
-0.01361414352779923
-0.0123712618678112
-0.05676101081802122
-0.006366876928480149
0.1181052311270056
-0.06122072553520003
-0.07316209767945819
0.1763265617059458
-0.09970587898183261
-0.1548053749340265
-0.02033046264923386
-0.01738076460510687
-0.02586975080773409
-0.02021305813474253
-0.05966347472492638
-0.02286077431013917
-0.01682459285853852
-0.1010678018398254
0.3439924738031838
-0.03881944780429362
-0.01662712517731379
-0.02320484565290104
-0.02655038311407551
-0.09179458449647231
-0.1287323888453103
-0.05110602868743237
-0.02086442722378153
-0.05422409332762473
-0.04025181281198481
-0.01224264234666072
-0.187132169976966
-0.02750021101348058
-0.2069498082621997
-0.01640450747574514
-0.06871782534322507
-0.05984697333465192
-0.01440039665298203
-0.1910908936195579
-0.02885681091811514
-0.01049245126928552
-0.01380681553601311
-0.102120123289939
-0.04051059334841884
-0.1036485330207565
-0.12819528673097
-0.01364917429079273
-0.1308118650501092
-0.01717160628958029
-0.05090797035921379
-0.1676370350081891
-0.03560218642943146
-0.01485970349674734
-0.4450818058438807
-0.02687580562610422
-0.3063976992455714
-0.02195258746707344
-0.02063668887676497
-0.06714147314121593
-0.0174525455419292
-0.04335043956793482
-0.3594502208915338
-0.03570032162468572
0.04180765054785929
-0.09048621532597532
-0.01721418710695711
0.05688516247333816
0.04363865944986768
-0.01669953339312781
-0.0531198827746478
-0.5474782720050725
-0.2236019412884385
-0.05321027982178316
-0.1116908055575379
-0.05781597192856256
-0.1347363975139676
0.0404075750030231
-0.02419475482526627
-0.06090253942111411
-0.1217084403636336
-0.03844009954972339
-0.05172506933721825
-0.118045195643024
-0.1413315903422913
-0.05232994635610393
-0.04820523287965606
-0.05544590919424096
-0.04561084506003373
-0.05787046724547362
-0.07358684902072105
-0.04063563748733747
-0.01099091813693314
-0.04092408837982584
-0.1262945435196886
-0.05107873479386774
0.08311736881977223
-0.04299191533374901
-0.007858642216307088
-0.02776053617640154
0.1801513602450047
-0.03968038101417413
-0.2725077187339414
-0.02043655518873482
-0.05467604267113047
-0.03185961651844099
-0.04813281609661331
0.01273597353816267
-0.04989144371395913
-0.03439818677934796
-0.214810046437126
-0.04265487081293252
-0.004816612893138746
-0.07746888545991505
-0.06789058434904541
-0.1515097272546676
-0.02108845256511415
-0.07643119612640799
-0.04151889131087044
-0.02283655461432271
-0.01643612757200287
-0.006254992350245683
-0.007536874391660386
-0.05301099609826174
-0.05076578801731976
-0.2080006788740373
-0.05788716485396322
-0.008508540609819577
-0.02266653248592622
-0.1454521179467579
-0.002109987028991689
-0.07757848911448338
-0.02352112398299684
-0.0008716925981201681
-0.01009581642469116
-0.03378150319728586
0.09532098933260109
-0.03963807174406252
0.2525963684534068
-0.2604654850392891
-0.1308619786440543
-0.03735592605122996
-0.09111681955066499
-0.009057095070627966
-0.1121920151535662
-0.1809210879213693
-0.2120506223434811
-0.1840504409057827
0.05550468180867308
-0.06215589206225933
-0.02035171578425668
-0.0677739537762639
-0.1752388746834621
-0.02381096991522398
-0.01866845341781374
-0.05311913543604124
-0.01839631427980145
-0.006254470256641623
-0.1102170116836216
-0.02298145444944667
-0.04645031723767824
-0.06913649907540714
-0.1636539213448065
-0.03364074081937955
-0.394069532690041
-0.01779736274203664
-0.2231747500062817
-0.04526912628596388
0.03074394928141616
-0.1045884491229928
-0.01453317886746094
-0.04188749092848004
-0.1061841589260541
-0.0177580585472658
-0.09723231689354694
-0.2035934820169205
-0.07293941955019242
-0.02384586396008746
-0.04962648006292782
-0.0436627486375117
-0.2022425781549532
-0.02199487611685186
-0.01905371892564373
-0.0113691793254933
-0.05502994518328609
-0.05186205253114887
-0.0225335338440095
-0.02076688750702637
-0.2442754470875305
0.1278783250700111
-0.2014372919433484
-0.2047746709333677
-0.01175601948282211
-0.01157064820095329
-0.06756563076930931
-0.009547256940168983
-0.5092492043611844
-0.1260930918106971
-0.01913132552363404
-0.001611789075076083
-0.02420875645336148
-0.285579952368314
-0.2742454260196568
-0.007323661092723361
-0.01791584982893184
-0.002369721438549834
-0.3447914726066613
-0.02836241492132522
-0.02924072794576519
-0.01257261662040615
-0.01970380399220715
0.05065530858711726
-0.1157733253511229
-0.0137745096445775
-0.02077671728645614
-0.04330854148688631
-0.01825461739979307
-0.01622775659958081
-0.02339072477963234
-0.06692501133082847
-0.01169414015152298
-0.01902567151110448
-0.008693616256525866
-0.001131162850287677
-0.02949045384896715
-0.001709060417418433
-0.002206023862109332
-0.006045709326509698
-0.0255823045138848
-0.008075173848797728
0.001642427057756561
-0.004094919700813035
0.001115305542992377
0.002411855389778052
-0.008576784413588645
-0.1374800289055479
-0.003008399102584278
-0.000685097678496606
-0.04807861938137478
-0.02142378482192397
-0.02474828758227648
-0.01423756064740497
-0.006105795877630178
-0.02096206042557182
-0.03771896625075392
-0.01441028324773984
-0.01267593441918507
-0.01199813266549918
0.005679462734570317
-0.0100481375185546
-0.01261635921156765
-0.01125426036941721
-0.01059604004696912
-0.00999975167393889
-0.01104260776172035
-0.01398760551974132
-0.3055699232185219
0.06080082399238652
-0.01512344396651372
-0.01662135629158255
-0.01283823510720334
-0.01257388228925358
-0.008544188194275682
-0.09928797936654657
0.009213952452810828
-0.0140641754831836
-0.01460787179605251
-0.0108194933442945
-0.05311667723466279
-0.008899043026525553
-0.01398867360321482
-0.009178395115390217
-0.001714513191331877
-0.009981338844144023
-0.01046212393251777
-0.0248112733336262
-0.01619156194833872
-0.01216396758926515
-0.01331510808114859
-0.009046450253032327
-0.01327126082630611
-0.01122183019213259
-0.05760846760490266
-0.01292159815951774
-0.0118170808776225
-0.008812441485976199
-0.01504357516391151
-0.01417111501038342
-0.01574100773671466
-1.38009561304732
-0.09854089240565643
-0.01249245480934829
0.02226540743577984
-0.1656345232109261
-0.09365696509430942
-0.01144032193779651
-0.01412174411228351
-0.2559467118798887
-0.030656134325105
-0.02029934377434056
-0.01116928868763354
-0.01989694210328841
-0.01126687864793164
-0.03069896841620084
-0.4152512578580268
-0.01216090437995656
-0.01409153263884801
-0.004816244376265969
-0.0103910015738109
-0.009178193858716417
-0.01428996835525375
-0.009700575197347069
-0.02641300303196585
-0.01134932393444519
-0.1612618973877912
0.01752187593947031
-0.007740881561358227
0.002852043183734479
0.01234151251476622
-0.04756956148070094
0.02962329779261055
-0.01271013502818944
-0.1360076885542771
0.2819983915427485
-0.00756014952360667
-0.01314447045628074
-0.008369673415156771
-0.03336583687291125
-0.122767293880428
-0.01335896783308095
-0.01233889804661049
-0.0171846755442255
-0.01365389085807886
-0.04105622175601401
-0.2145865936468449
-0.01113915406080437
-0.04148619232199757
-0.039674305041648
-0.1680986524879394
-0.1616514799783833
-0.1503279717847022
-0.258549787409981
-0.005947155866158509
-0.0212291888469392
-0.01485262182403987
-0.01307884738051721
-0.03294001288491131
-0.0243881478103141
-0.01442071954786997
-0.01504698214196161
-1.082330783294219
-0.004132423273518127
-0.01379997462140735
-0.01834750582762571
-0.0175722449229089
0.004471575797862816
-0.01388721826474045
-0.02769107183723304
-0.1667214184069801
-0.01353318794745226
-0.02186093271048378
-0.01410957644742061
0.002242918804096755
-0.1784697968965308
-0.01334950773087617
-0.1470208136623556
-0.01599747422164947
0.009896203347336308
-0.01437955459593106
-0.02329916907089599
-0.01593667017918386
0.005930281195911906
-0.276137997249333
-0.02572930442865347
-0.01628555817107133
-0.009917119815492554
-0.009695367923991229
-0.03045599598428339
-0.01429606801104333
-0.02056591287178699
-0.02127340486343511
0.009471134661654074
-0.1008717196532623
-0.02204053109914715
0.009271053154180425
-0.05168895623249985
0.1604160729578582
-0.1032060375692846
-0.3221196052174887
-0.02999078520494646
-0.02545356139524935
0.1489355831292301
0.09233568570778028
-0.003340797336949083
0.05074491023448929
-0.01573428150433155
-0.01428504361069456
0.002283184284581639
0.01151726389058962
-0.06698149783496514
-0.005198929117459076
-0.05748127805855557
-0.02252743460386403
-0.01569731967864691
-0.03651614357212674
-0.0329255659532887
-0.006658126353882031
-0.01480145576096298
-0.0391527384689901
0.03528693070756747
-0.03882419583238817
-0.01352840772404685
-0.1165847432627535
-0.03175124484602886
-0.0387246503065654
-0.6779302727677499
0.01647325910555789
-0.01116327487287407
-0.00526379667103931
0.1702002787079988
-0.08901730832337451
-0.03515200553886199
-0.2470721434846605
-0.01629168940981906
-0.0165479976048409
0.06281294671165601
-0.1853040189633784
-0.2250995717416884
-0.1957157687278218
-0.6865740135582729
0.009414528878852651
-0.01852232297303502
-0.01602863411210637
-0.08381933138411064
0.1176958189960648
-0.02146627415183298
-0.2513122770467336
-0.03517435020715179
-0.006491788973185712
0.2763172423057915
-0.01114300356357002
-0.09376945464040001
-0.1490971173026134
-0.004726811672637644
-0.04061062116018226
-0.04475668258836363
-0.2033514354663701
-0.008823515856812654
-0.04211911193206255
-0.003013825005688466
-0.5516252678325492
-0.2003397961067171
-0.1756159320075922
-0.02291957572031656
-0.007323286680874605
-0.06013659105585878
-0.05817745129579032
-0.01559143141458973
-0.06772163979346915
0.003502761293882803
-0.0182760260845389
-0.09583646029626484
-0.268165318210507
-0.008474711668846795
-0.02593739107933423
-0.0220072762845021
-0.07441884027105228
-0.09112775772283166
-0.08793104034263481
-0.01128127454658111
-0.9251982198497022
0.1605283121001113
-0.08129757658851365
-0.2573180271661431
-0.04254905339721297
-0.01001338131311297
-0.2475671031534585
-0.1846757256814383
-0.03320385555922614
-0.1225443816309573
-0.01817903360537661
0.5622138031207212
-0.02405898446964786
-0.2251150322190273
-0.0261156860159094
-0.004884084648836766
-0.01169596204069055
-1.256315580986483
-0.1843923795099568
-0.2337738402847697
0.005399248877151484
-0.03732069659543604
-0.2473999835636261
-0.06554159186192808
-0.05106223778889506
-0.1418666916842177
-0.1922171725482754
-0.06797998694915929
-1.230166739576747
-0.148766976349591
-0.5229204933059339
0.07826085898313259
-0.007038631487895638
-0.02192187945636772
-0.04274391941159995
-0.04064895823675165
-0.02864561801966782
-0.1322031867139381
0.07977282995882039
-0.003921489275850006
-0.009700335693435272
-0.5775855268851787
-0.863330851234969
-0.1852726244203716
-0.008022855679546389
-0.1324049340232187
0.0008430564603752066
-0.0007905493916031618
-0.002127348955059524
-0.06048834830852189
-0.239003731756388
-0.01345971648094233
-0.1198647595028121
-0.1543498664958385
-0.01321526269858844
-0.03580022226081742
0.02274781914616998
-0.05743924891925107
-0.06990125016094997
-0.5023758481740461
-0.2482170394433354
-0.0812134864165189
-0.0726856054703348
-0.01986767215194753
-0.1181964550427807
-0.1571858439785802
-0.07762581959669555
0.02582232471183002
-0.08462019383427843
-0.04822452480226461
-0.01494494372500144
-0.111284959887061
-0.2733510487479135
-0.05695268312397112
-0.01850711337586984
0.001465527707094288
-0.01015734632212856
-0.0110727398307525
-0.2224987464366144
-0.0146219926652235
-0.2225061439395967
-0.01066142190644934
-0.0652600028731936
-0.003467743656877318
-0.02319482990104899
-0.379521450429025
-0.9096311283407545
-0.01130100928335535
-1.051016711388975
-0.6129132915320367
-0.01080401114349149
-0.6527722779102311
-0.1771521703760593
-0.005300285473860833
-0.129132132352307
-0.01717462136959038
-0.1217611326391721
-0.06739890072625271
-0.07484494462267387
-0.005448485187609743
-0.003048551796060541
-1.333718804676572
-0.0110907053752704
-0.1896782124678704
0.000572048118986652
-1.01556310397273
-1.23176465576592
-0.08163076213914208
0.01987667719446508
0.1642897945206321
-0.00489131923044353
-0.02300582299518267
-0.004295894416277603
-0.2499407962730907
0.3661065778289556
-0.04102272868123953
-0.2104969599355506
-0.01503631035033976
-0.6593498620403748
-0.07510362780830626
0.1914353475807015
-0.2882217750140972
-0.04991801232273762
-0.06890155428838055
-0.01582499499105647
-0.0216818155957346
-0.5770167478088125
-0.1461702694350313
-0.08833489129222349
-0.1251336399472702
-0.5576980331598053
-0.04432808431693163
-0.9109233406714606
-0.0009357411824499285
-0.2381167814133854
-1.04489399475934
0.170417880066082
0.2926732256860901
-0.177942726059793
-0.1938042742546726
-0.2065899334965537
-0.06816601059911333
0.02361956487822396
0.05076264295660313
0.004421856779670916
-0.1613683892591838
0.02489368687554175
-1.352972510394861
-0.08528147075765362
-0.4724947333325175
-0.3290070965311463
-0.207076615330447
-0.1759313746710335
-0.01693818445608392
-0.01542771323348778
-0.1020008642812314
0.1700091640974046
0.385808282840724
-0.2217496459172878
-0.1460249706272224
-0.2398825023249553
-0.06254122337018309
-0.1544832761374465
-0.1645908247467919
-0.1255990858463895
-0.1174982833838572
0.4674923709935321
-0.2712249212352122
0.4297977838500552
-0.5994790651598879
0.07040270527931994
-0.2015179326648081
-0.06622016730314369
-0.07401034181760893
-0.8779654744600934
-0.2234642629506168
-0.1893550154901114
-0.3470865533580338
-0.4577201565549748
0.5705446791837511
-0.2049648378031761
0.0001437295466744751
-0.07085709647007858
0.3427908186435987
-0.03758798418761311
-0.1248152825217382
-0.1785210594733697
-0.06419301767808301
-0.016473775231909
-0.1935011060740869
0.1917255687862923
-0.01268905734938917
-0.09636500088283804
-0.1688212993473595
-0.3123331864218492
-0.3137042287727734
-0.06987994851161383
-0.01013834783568448
-0.07531188247089836
-0.6577864693608519
-0.6666064175793633
-0.336157737461141
-0.05778820750272768
-0.05201325637813568
-0.02534862038630446
-0.0677013409049118
-0.05788735508631587
-0.3594454807450803
-0.9539813976767052
-0.009737296841570375
-0.08303203993897393
-1.134638004760346
-1.029840848361247
-0.103524012370838
-0.03853913053744124
-0.07006731127196621
0.3913284594507817
-0.3451170998182234
-0.05189652267946544
-0.5970358068109468
-0.1274498043844264
-0.2535249242289236
-0.2093008936944393
0.4744105013188628
-0.626787171455819
0.07225863294534179
-0.02947687388006881
-0.5578099501314004
-0.051530318086844
-0.35947996609876
0.1061720850618389
-0.1900572866763261
-0.05990147251313422
-0.1338054490044211
-0.3639170105580954
-0.08949028223167811
0.5135820542615122
0.08517795464602892
0.4714464731803883
-0.1170571050579411
-0.1999303429629404
-0.5210072121192288
-0.1298006526814905
0.02686793113687568
-0.05360308868804314
0.1032996684077436
-0.3099512668782718
0.2361536038785336
0.008967047109770426
-0.003316802363813621
-0.5148108898254711
-0.185981047305121
-0.09292231864934958
0.581208881656755
0.1382807642081174
0.3471472853478056
0.2257078478651794
-0.5593574064688407
-0.2143611968294089
-0.218684162623369
-0.2385881710388607
-0.06037675806595546
-0.6961107273136334
-0.195262395173471
0.3065404287286748
-0.21028203644243
-0.01107190406591829
-0.171603141399919
-0.009514457664331417
-0.1603528876977896
-0.4354163492184283
-0.07711915787359033
-0.1976521571174951
-0.07298446142608846
-0.09765130413835181
-0.1416565331072728
-0.0736890501299612
-0.4529690550145151
-0.4166795645430828
-0.02699115123856996
-0.07436645363522502
0.3257424870893917
-0.2467919156526778
-0.1821614224102384
0.5260503695692943
-0.2046168743814922
0.0172899599844406
-0.4484884404543449
0.04486332460177694
-0.06218825028190043
-0.1563475338538885
-0.5819406802560345
0.162720518177242
-0.5824471719331509
-0.5329044101549358
-0.1066675871110559
-0.505555537893729
-0.03729572607619793
-0.1453762748441655
-0.408214767615925
-0.01634000042426605
0.2859967957513254
0.4893337708972987
-0.1597285272330904
-0.008351786274610765
-0.06926352909152272
0.5253385345670261
-0.03334754896140785
-0.4382084510260709
-0.03265288128373382
0.4599812678423267
-0.01482855103886907
-0.5422425070385091
-0.2417964776293576
0.1753730798439747
-0.309605413533776
-0.1781213178495678
0.05241274582084714
0.03360523906540759
0.05410059859817525
-0.2985613481503281
-0.1567111745180605
0.4127101502678053
)
;

boundaryField
{
    FrontBack
    {
        type            empty;
    }
    Top
    {
        type            zeroGradient;
    }
    In
    {
        type            zeroGradient;
    }
    Bottom
    {
        type            zeroGradient;
    }
    Out
    {
        type            fixedValue;
        value           uniform 0;
    }
    circle
    {
        type            zeroGradient;
    }
}


// ************************************************************************* //
