/*--------------------------------*- C++ -*----------------------------------*\
| =========                 |                                                 |
| \\      /  F ield         | OpenFOAM: The Open Source CFD Toolbox           |
|  \\    /   O peration     | Version:  2412                                  |
|   \\  /    A nd           | Website:  www.openfoam.com                      |
|    \\/     M anipulation  |                                                 |
\*---------------------------------------------------------------------------*/
FoamFile
{
    version     2.0;
    format      ascii;
    arch        "LSB;label=32;scalar=64";
    class       surfaceScalarField;
    location    "677.5";
    object      phi;
}
// * * * * * * * * * * * * * * * * * * * * * * * * * * * * * * * * * * * * * //

dimensions      [0 3 -1 0 0 0 0];

oriented        oriented;

internalField   nonuniform List<scalar> 
1171
(
-0.9279301005440774
0.9279301005944927
0.7874380540207275
-1.099185452193483
0.311747398160837
-0.1906958079795466
-0.764860805261606
0.9555566130894707
0.07206990274486591
-0.11684424650293
-0.2122889347690829
0.329133181214481
-0.787438029428458
0.06948226794401893
0.717955761475219
0.8117103681520002
-0.1779063359350038
-0.6338040322551346
0.8743021368335918
-1.044160541456129
0.1698584045841254
-0.2854204591355614
-0.09738977250633118
0.3828102313250568
-0.0361484215187287
0.5489287446580384
-0.5127803230682452
-0.5035248346110069
0.8245213785579553
-0.3209965437293881
-0.4022647026843822
1.046017452949765
-0.1717153163154027
0.3928479958187909
0.04853497373081799
-0.4413829693576639
1.046011709613843
5.743484987431917e-06
0.443295866451335
-0.05044788069732663
1.056665370760896
-0.01065365730590845
0.5789393657222597
-0.7696351765591191
-0.7243201396440022
0.5567870231653007
0.1675331165160066
0.2180659992005585
-0.7215908407667723
0.5504893023885427
-0.9228306452016466
0.3723413434112535
-1.094181078659866
0.6864912882502995
0.4076897902742757
-0.5955500326491671
0.5594016083055227
0.01791997287427198
-0.2566508286650886
0.238730857006837
-0.02335673473924911
-0.5215861854441537
0.5449429191970032
0.4004258060084027
-0.4978155764189746
-0.9189047389672864
0.9415195760788212
-0.02261483708057328
1.067531247749415
-0.01086587541976909
0.934888521667403
-1.116683015475457
0.1817944938287135
1.067005040974325
0.0005262096541775982
-0.6644638645090016
-0.05985627913592297
1.262347812453029
-0.8642342453331556
-0.3981135671400121
0.1481003021350553
-0.1094328205808393
-0.3263382831903673
0.435771103550293
-0.2856299615353198
0.1913095501975075
0.09432041083615822
-0.5836326814477425
-0.5155527851453096
1.014017837989836
-0.07912931400001828
0.009921975136723512
0.8254683431762765
-0.8353903183073552
0.5718464695076703
0.6905013469262733
0.4394959163839099
-0.03036029556104907
0.4307861010663172
-0.8078943782657704
-0.1025079759588156
0.910402354256345
0.5021749434304914
0.2537451161342607
-0.7559200595068509
0.006686153797471571
0.5270578489639739
-0.5337440028686277
-0.489916449249711
-0.6042646291336067
-0.4227857815527005
-0.6938972309903557
-0.02702918453777614
0.2702073718021929
-0.2431781878114782
-0.9246950058273119
-0.005065251728796585
0.9297602575528529
0.3087239870339853
0.07408624786115774
0.7619374246839654
0.04977293794678192
-0.5331301182260729
-0.06241991969033771
0.04609835084428158
-0.8539927277149836
0.07488876787057658
0.8634363340280042
-0.938325101868274
-0.3469381450393506
-0.04144263188782994
0.3883807772061655
-0.6820737286847819
-0.242621272631625
-0.6332973742219117
0.7081861416278806
0.612725483983842
0.2117958930991129
-0.5431406295025961
0.9457271206869257
-0.7791147315984154
-0.1666123890549058
0.01574632725841955
-0.01548270087744032
-0.0002636238944060945
-0.4032979910144733
-0.09451758679715776
-0.2408044936285958
0.8535299672717296
0.04689172148290325
0.3354933816471706
-0.3823851033714562
-0.4605885633435757
0.9627634984411857
0.6803462486939752
-0.7828542238496498
0.3206266489096328
-0.01754887639414137
-0.3030777711768338
0.9307319798497198
-0.9307319798552637
-0.7815851170686898
0.1105179846542951
-0.3228069211339284
-0.7499657793041841
0.7598877581857008
-0.08995205946450993
-0.1433946357702636
0.2333466950671862
0.8649832709966216
-0.03951492319911505
1.054222699304369
-0.8004775909582769
0.1863013581269899
-0.3157634911761313
0.1294621329474017
0.8590621368591516
-0.09712471150066916
-0.6116552680386323
-0.0389873358110417
0.6506426038563394
0.1236250241659511
-0.2309164826883749
0.1072914594796557
0.8056759304643172
-0.9835822690128548
-0.4351224160796819
0.329534086651632
0.1055883295147677
0.5319468560086354
-0.5553035929012688
1.021939661803668
-0.4561883541644671
-0.5657513076048641
0.5991538828805765
-0.7193900009442211
0.06681706599390524
0.6525729345810434
0.1031420616873413
0.569903100621305
0.05534610932913573
-0.6252492098791601
0.1941466152967628
-0.08362863416518544
-0.4928460379960481
0.145907893740224
0.05025530791968479
-0.886614115723234
0.8363588078191758
-0.4730512081823942
-0.7133791989179804
0.04891533066659393
0.4372548904483645
-0.006468789857846125
0.29985752090838
-0.8552343402232901
0.5553768195705776
0.4157328154369053
0.5842671845579767
0.5604539100246007
-0.5143555606595915
-0.3675183649689054
0.03657911591060981
0.3309392480647231
0.6813436499698117
0.2493883321454485
-0.5656925275384418
0.5723786739145243
0.1109166028450017
0.875158177229537
0.01015761177756967
-0.6218128771300064
-0.7491845320821487
0.7994398387746796
0.5309157681066069
0.06991627856590206
0.3022805303991822
-0.372196808936759
-0.1675014390561524
0.4427710740983296
0.08428677982193991
0.8762069933195127
-0.8022793972307646
-0.07392759599345447
0.6352890679969357
0.3104380562596604
-0.4303271816939644
0.5742036674346925
-0.5042873878922605
0.417202448739066
0.1332868500561421
-0.0467846611739603
-0.5939963199967456
-0.1375124786749465
0.7315087986293406
-0.1497835983473222
-0.7809483804920434
-0.6109799523590449
0.3606273154844981
0.2503526361035698
0.6220354768782184
-0.6118778665033978
0.2391811100931689
1.011240559358684
0.04298213194570873
-0.7491845279299969
0.2342303022170023
-0.2184839641204547
0.6803462518454458
0.801815680708981
-0.8018156807059875
0.8376987876727005
-0.8332128480503531
-0.004485939556495373
-0.4453796860873018
0.8611124953123265
-0.1473723826626206
-0.3454736532765272
0.7347103516309235
-0.6684823635014192
-0.06622798819022792
-0.7335168332585089
0.13952051492494
0.1387972106035373
-0.6719273326088195
0.782854236263069
-0.9503556753713744
-0.3681174219854844
0.2916983691697485
0.0764190537665371
0.1459116850365517
-1.009864392853514
0.8639527078398413
0.4813251465848342
-0.04182923025496407
-0.3081522327904708
0.5864490320424317
-0.2782967991842367
-0.7384937154759523
0.8844053939699086
-0.1570792501552159
0.7318894266823989
-0.843957881606017
0.1120684551649939
0.9761493199870733
-0.5403850173287555
-0.4357643026492597
0.7550310260161539
-0.06502586387189911
-0.03182380513009518
0.1857924914966833
-0.1539686871253261
-0.7757991241900787
-0.8435748728036894
0.07871406557978271
-0.7499657765474704
0.5136828221694828
-0.5551254509239764
0.09618087917191959
0.719538377818045
-0.8157192569033849
0.7536704753243628
0.1742596254007952
0.5029056360832393
0.4970943639010869
-0.04994914022030021
-0.6111630814710158
0.6611122215576133
0.884486507711897
-0.008279512302723438
-0.7550310260088355
0.7994398431022463
0.1912318320386192
-0.4478826622169377
0.01764999185966104
0.003240932748169262
-0.02089092187401695
0.5885285000973467
-0.4379669911528445
-0.1505615087906935
0.7179557470462974
0.01119890063630312
-0.1116854528593697
0.4372691487186092
0.1512593475590453
-0.01606706730431014
-0.005644828565917246
0.02171189558917301
-0.03140706894615446
-0.0004167594610375532
0.2442328024924516
-0.2617816728731187
-0.9588949230519326
0.001376154422122443
-0.1594550799591657
-0.1238846177006053
0.09436994849488521
0.7219590000397613
0.7290328312388499
-0.1447656475910264
0.6707437589950636
-0.5745628763991482
-0.2117257259589125
0.3980270814219878
0.6955116018089131
0.02244414523488377
0.2417286821365431
-1.074941531208135
-0.9503556718389363
0.3022551876832307
0.7598877618504548
-0.2088598636396308
0.06546521359332889
-0.7233351503124721
0.9109900628140649
-0.1876549124335653
0.4156456346276556
-0.02726485118369719
0.7713329435425832
0.2806100095748765
0.3735700886858226
0.06972580128727703
-0.6586944350194697
0.6586944349988823
0.214598812655127
0.6958035431330409
-0.05571801369411844
0.3912114118956289
0.3800530803422377
-0.01590812637056586
0.03355808383049679
0.4489412704064566
0.03238387305735024
-0.7384937185820813
0.534070446466308
0.2006399050109648
0.3036807752515526
-0.1178882877446504
-0.695511592245566
0.1802078411702937
0.7307822145022401
-0.01013516677933963
-0.8137178190707556
0.8238529858195659
0.6963232953889056
-0.7920766359464525
0.09575334054618655
-0.7536704724282012
-0.1495900144574024
0.2110094188423951
-0.06141940515341457
0.07716934263476495
-0.1796432295101278
-0.1117108960625631
0.2913541256505287
-0.01005884658780375
-0.006008219627065298
0.7063077983815194
-0.7164429664202964
0.8855803740750523
0.06997623753225631
-0.3098727146054482
-0.5221853674994128
0.8320580818454744
0.1025743911133295
-0.1025743901280647
0.3282774804645104
0.4794000176456247
0.6079039354004921
-1.087303952882787
-0.1941364581249468
-0.5855680209848841
0.779704479112679
0.01207953915429527
0.2212671489727376
0.3769100800646595
-0.2532850622829139
1.014003114652504
-0.5346030968139589
0.665875048158874
0.9927220393513603
-0.384818105221684
0.2295376923133968
0.8844053877750272
0.7126900732190381
0.213745690989491
0.7277738854145143
-0.7809483787751583
0.3413055536012991
-0.2823619644830458
0.25420199914313
0.02815996689360224
0.8519946900293769
-0.01342844063715229
-0.8385662492748253
-0.702036418661915
0.7025626285247969
0.5546203105239819
-0.7020364174791979
-0.7126900732068153
0.7025626299730771
-0.03374567664693711
0.9045002875372018
-0.018919913350877
-0.6813436497091239
0.612273805168238
0.06906984454880331
0.5388311450596004
0.5383508782932837
-1.077182023369357
0.4901246254961161
0.5238784889050532
0.5466632745554493
0.4589778521727834
-1.005641126677439
0.4967338775464603
0.4959881612782073
0.612273804808487
-0.5256871495199097
-0.4662062362451037
-0.5557314449635732
-0.516920232124423
-0.124419507800552
-0.01262674837016269
0.01262674757776485
0.5099430825194025
0.523930980602078
-1.040851212607326
0.5740421299309364
-0.2717615966033097
-0.8836791612289336
0.3432941430157069
-0.6326847304840123
0.3900634588938275
7.430430092677728e-05
-0.8293945283911868
0.8293202241329811
0.4208805863238982
-0.02228542061880329
0.8742801043516546
-0.9431700891508727
-0.8352090906830441
0.05747056616270742
0.7777385245246329
0.5504162226373038
-0.4361901979753331
-0.1142260248323429
0.6500065026495024
-0.7291358151540257
0.8837160805895244
-0.8291638393119292
-0.05455224139412344
-0.01205140767448156
-0.7902279880617278
-0.1107488834667087
0.7159728745775834
-0.6052239911159683
-0.939807465671903
0.9277560589015494
-0.7367863038231032
0.6891955279644328
0.04759077586633276
-0.8014021002553855
0.02955468403666883
0.7718474161463427
0.06171804391066252
0.04085635061761862
0.4331443546941947
0.05945400415198357
-0.8496788028309215
0.7902247988057274
-0.6438649798483572
0.5939158328098433
0.8905045172763074
0.07200801412117465
-0.9625125312538758
0.05529542899493123
-0.04935697322037784
0.3802962189969754
-0.3814353038581236
0.06567180605250578
0.8410972872301682
-0.8410229829572136
-0.7314258634821716
-0.8085482545341109
0.01832026761699143
-0.1683920282926451
-0.8486054710790499
0.01944163363006123
0.6247178650672863
0.04602589720980633
0.01784252897644713
0.5325736942499293
-0.812743595751703
0.842298279736316
0.5657513058705486
-0.8516799455111949
-0.8677994494169209
0.03670083886906113
-0.03648371430210381
0.8350993424638399
-0.7986156281688691
-0.01928524337291866
-0.7679095828358453
0.5443121199190388
0.1520111713982942
-0.02235574241653913
0.8966358458032333
0.985226626549794
0.860544672212929
-0.8411030377173722
0.147431804963828
-0.1474318032365533
-0.1180344482517204
-0.4699648464403812
0.03377464865237243
0.2714684910638046
0.03078669641017072
0.3847689810160626
0.8773506017277102
0.004688967154660822
-0.0147478064108703
0.6586108890205379
0.3413891109595526
0.7835156517061459
-0.5836326820181144
-0.7780334613389015
-0.8120440767620626
-0.679947792731096
0.6799477927419179
-0.1680102852478669
-0.1547966223111001
0.6016011154142814
-0.8114931897389172
0.2098920743186809
-0.4938704951990142
-0.5688910850229948
0.2781348336112599
-0.9720320639374898
-0.8994612258614625
0.8449089868452521
-0.8201876562782194
0.8385079238596402
0.6485159342354542
0.1345530642333561
-0.7830689984669871
-0.7644533107920054
-0.1461583408644082
0.7251874678534337
-0.5790291270198153
0.02211062353077103
-0.01394102673083754
0.01692150247059524
-0.002980476663299117
-0.3534656324088796
-0.1164992143976323
0.8797359492636997
0.7373215706910673
-0.238539147027618
-0.4987824236504331
0.6230955439637494
0.685498517994483
-0.4708997054091234
-0.0005439693931696471
-0.2850859923261767
0.01802338741263514
0.7450819890476744
-0.7631053765174409
-0.3235161288427061
-0.07148631161455807
0.07571582450177722
-0.9647535187907622
0.1261872650514608
-0.6769401253494236
0.05369886294613991
0.6406681840901959
-0.6943670470915858
-0.7568153068501344
0.07987518152656277
0.5893637566698036
-0.6608500683391885
0.1560121616047922
-0.335655387067353
-0.7723289657871143
0.007875654964428977
0.371196050572345
0.6006400988332359
-0.02643642617008312
0.0232278745760414
-0.02322787289891316
-0.0182715859725203
-0.05305203603493652
-0.2293099233375856
0.01950281925906931
-0.01481389012304629
-0.72630307926305
0.2794152539331506
0.6784430550330262
-0.6904411208142698
0.01199806565102829
-0.597825368372863
0.6515242305070827
0.6540957654199697
-0.06473201101444961
-0.631376598271303
-0.125438706358303
-1.049601940984425
0.01124546250703704
0.1361863408253748
-0.7082796936211938
-0.7421254755055191
-0.7638029912059999
0.3656894266884647
-0.408892185712453
0.4697600535299396
-0.0608678678487215
-0.6770872525700075
-0.03119244114871569
0.4996684024864344
0.7306807965008548
-0.2339902374175293
0.1101056181229184
0.9568778729316776
0.4458989802401066
0.1329230655230896
-0.5788220457417795
-0.6779855963259688
0.0008983471479394594
-0.04452720066606967
0.03058616917673633
0.6376895871151744
-0.7752020627960885
-0.002912428059604942
0.002912428709968415
-0.5999572081218009
0.6492366894279519
-0.04927948142379315
-0.6601430615259999
-0.1137964866610035
-0.6718348894086167
0.05094326146609511
0.6101689457313043
-0.137510465895187
-0.8179932321448107
-0.5604288358963955
0.5712064643679436
-0.01077762974969868
0.6327904854173828
-0.6207924181092268
0.3222466763243585
0.2138110058398479
-0.5360576821450936
-0.1044358889130892
-0.6029836188942973
-0.09138342825617424
-0.1540582240169482
-0.5094855728257894
0.4043434197634135
-0.498861012959789
0.1259653753684844
0.6786733143588114
-0.8046386896806909
0.5991538828862161
-0.3751526168583082
-0.03373957968595678
0.05941112478447664
-0.568896697260706
0.5515906330966407
-0.0402953279233939
-0.5112953049554486
-0.3124790845132931
0.3051083321807854
0.007370751069624098
0.4509273983891503
0.123114733623541
0.05111214429858143
-0.3159892215822452
0.1569501066468673
0.1590391147090225
0.2543604002068001
-0.02013011657093896
-0.2974549855812551
-0.3137715398238866
0.3642432780164906
-0.05047174178345255
0.7920623059713536
-0.6295704262575973
-0.03057263533381769
0.4995453212851458
0.2841994082386747
-0.5227385442034352
0.5774453482761083
-0.5774453482768311
-0.2897903558163198
-0.5865204274820003
-0.2955140997478823
-0.5865204276944295
-0.5968231015699829
-0.838483473876513
0.1700011077002788
-0.5957957772517005
0.8212348022119028
-0.003534825376839234
0.1194474969419733
0.4811926054537933
0.09671356977967277
0.1853730179543386
-0.03612375434446262
-0.1492492639889416
-0.02458930877602976
0.5915533710108613
-0.9433103614996463
0.4211249944395265
-0.001978474701576823
-0.0001592837475285397
0.002137758614170056
-0.6437611413850515
-0.1320573364528198
-0.4654668619320216
0.5983899300354727
-0.503653744186468
-0.31422751358333
-0.2546691798346151
-0.2722910773945125
-0.1118055212782329
0.1118055203660453
0.1534024067694738
0.05760698533575608
0.1966184657140871
0.4496299387146999
-0.5703748937782027
0.104908031582228
0.2522235442971358
0.4661894008468851
0.5338105986523332
0.6450279717827184
0.08027726347387569
0.003374287773592918
-0.08365154996938541
-0.2769643265444924
-0.5410289056471146
-0.5450393848530223
0.1143875342584603
-0.1263014069361757
0.01191387225460049
-0.1059406358808554
-0.3857689881916175
-0.04720259652692503
0.6573715365232876
-0.4992915307511492
-0.14446961063671
-0.3297102149060548
0.2877726745206818
0.1262848146402537
-0.6057553169912467
-0.2041340563721473
-0.2622434110630251
0.000461739327022223
-0.4210962889432628
0.3217918649017339
0.09930442399367115
-0.0888003602195961
0.2916612229681946
-0.8959258551868244
-0.4577160929889296
0.6327822216938195
-0.7730432605564019
0.6686073716024548
0.3418544394574187
-0.126285772394381
0.2253197498044142
-0.09903397685025163
0.030731810566374
-0.5861770621500719
0.02902061284251784
0.5571564494916309
-0.900681907968542
0.5471766338819064
-0.66521108204882
-0.09840137304052084
0.1089830050092399
-0.108983003031034
-0.3165331891100245
0.3615810401613074
0.01871517595456851
0.02100224384736251
0.05927499940262677
0.5044793450802615
0.66617895732151
-0.7401065518766888
0.02424318727709684
0.02102881734939465
0.002199075532201041
-0.006299656594194358
0.006299655723015793
-0.4110461688818212
0.5341609001173684
0.01542727767957829
-0.01542727775664856
-0.7925171136092155
-0.059843281464815
0.1215613239625764
-0.4505142776100389
0.555422307143853
0.4493174201532049
-0.4985968985581365
0.1498920370745625
-0.149892035526131
0.04447058962021266
-0.01091250185071532
-0.04097627493300057
-0.976947113951969
0.5411828107073803
-0.4719140444715767
0.0408563493946727
0.514848662192642
0.0306346696992515
-0.5454833317476733
-0.6160759803213596
0.1167844496288367
-0.3295973109005668
0.01355935084234113
0.3160379610045008
-0.1538641651294307
-0.08012607802156493
-0.540831660460012
-0.04534540266618119
0.1361863436784135
-0.04155495889084377
0.03864253693366351
0.08187676011408654
-0.08187676192916465
-0.5332765548204942
0.4828048222178999
-0.4145752328379515
0.1613125596737187
0.6222030920030259
-0.09762943434260216
-0.006306386353172684
0.006306385942797456
0.5330064752067974
-0.07318162004989215
0.006408615135517532
0.02720334357595323
0.03455669089656813
0.6894344355521813
-0.7626160556019576
-0.6635140323401878
0.6329413981140078
-0.1103329861780387
0.3132673521227807
0.7457967765856061
-0.01827158709175304
-0.2660144328566145
0.1481261496747345
-0.7446479760808653
0.4840302217647693
-0.4230612128067203
-0.1012273204846306
0.003480461726746382
-0.01471324848291999
0.02287711775763241
0.4124369578133313
-0.1216733452887498
-0.389621968005904
0.6290924478291745
0.01892638243052388
0.009401660692713504
-0.009401660224240655
-0.3564374383109669
-0.08364661957643739
-0.5605290099561276
0.55699418466123
-0.2379966683164177
0.4647756735929993
-0.1506001363369757
0.7295395017920766
0.6714285545829776
-0.04155496732867347
-0.6157430158835761
0.5597431015374628
0.2837156669200974
-0.2807492030276754
-0.002966463622391969
0.544141034343804
0.09342736518445086
-0.03872989060665054
0.1969829062239369
-0.1582530158868688
0.1206066652607114
-0.1206066673491924
-0.8586814408439611
0.002460216735206047
-0.1129898364505257
0.1401931809378812
-0.1318359464931722
0.1318359452597033
0.02102881204838481
-0.02457795471467249
0.6711645754523529
0.0596176372519602
-0.3230160935265224
-0.06275289458172856
-0.4712874299835835
-0.04599454828486837
-0.1516477085139679
0.1516477068758203
-0.03918096115871829
0.1433544945842007
-0.1433544930880787
0.1368080887555566
-0.1368080905657619
-0.3158467086333333
-0.1144804730722506
0.22642269289509
0.1031113880769837
0.03482845610779804
-0.8212012492474263
-0.1973537501759285
0.1701928897441721
0.02103893508466952
-0.2650841235049989
0.1258999932192738
-0.1258999918984239
-0.4141733399174576
-0.08468767265150549
0.2362902603324229
0.002440588887028298
0.04032180445786039
-0.5440656240255752
0.5778113006330302
-0.0250437120276451
-0.01413724868118596
-0.02630139672900985
0.01538888699522327
0.006537511397436912
-0.184357374924779
0.1778198636589266
-0.1075747175617889
-0.2280806693927093
-0.1447058084907656
0.1447058069649211
0.07272624681009579
-0.07272624762168937
-0.01926463213649964
-0.1086643178903628
0.1279289507842186
0.2373247848809583
-0.1830169521941949
-0.02126270609034511
0.02346178069059721
-0.1324768007698649
0.6152816286509716
-0.03907927153357161
0.4229455153733817
-0.04099832600467289
0.06271020565943451
-0.1534828408746853
0.1534828390473763
-0.6361904697776714
0.3086797458313654
-0.07914205235407358
-0.2345618634413469
0.003645385381145758
-0.1226430091830657
0.1629648130352408
0.193952384430998
0.09740174243229836
0.09469859275763082
-0.06014190213209381
0.0727986304400645
0.04158890086574119
0.06396916002928148
0.1062237352105771
-0.09800390002462013
0.2081095375466634
0.01231408098409787
-0.1128177689255489
-0.1025733642109449
0.09726163746410142
0.005311728213385502
0.01162715611574622
-0.02207194327354374
0.03762395967184151
-0.03762395981215887
0.07433989954678351
-0.05499763884001625
0.05499763854101848
-0.224485184423808
-0.05010756484128191
0.01167311489484161
-0.1031746238816333
0.01620143423837054
0.1085003928271832
-0.1085003920009677
0.2932568149363944
-0.271231488703791
0.1636567689498231
-0.05036615075722978
-0.2208653388374363
-0.01724260885831942
0.01724260932422082
0.3673412508837249
0.2852316901560094
-0.5275724344686937
-0.09396144839697075
-0.03233996746739825
0.5286538143614106
0.2110234132766317
-0.1686126944554972
-0.3820945909251999
0.07658682611089994
-0.1476058702492021
0.1872183261722267
-0.03961245638892259
-0.06691152099161501
0.06691152160292799
0.822383602702825
-0.5604746448854164
-0.002154102054400829
0.01378125886364658
-0.02003044586617572
-0.2868539704664942
-0.017454516657514
-0.01286986493264804
-0.1318885399419882
-0.5721270257148745
0.5559751028028147
-0.5686334568344684
-0.006941911698822197
0.09979303046066931
-0.00183512660403878
0.01667473654969452
-0.1676363244171713
-0.3365186992394508
0.233344075579131
-0.05436695416640371
0.03510231345343261
0.1320050780527299
0.1731032549430741
0.3387744320406212
0.2765082525473366
-0.2783433784506631
-0.06393083348686679
-0.1548488827469811
-0.2210025279280422
0.07474828979837969
-0.01077912740408473
0.2140409490745777
-0.1973662120835319
-0.08623035122301749
0.1590289904999398
-0.3548224506592958
0.2086191644117202
-0.1924177303003793
0.08967202078245223
-0.4792939899331432
0.1743484584978036
0.1701568717609678
-0.2563872250341767
0.072626642981048
-0.1944411352640167
0.1769866182524293
0.01739957038405522
0.1416294150919094
-0.03957036457319565
0.06618055105445587
0.4668259237736856
0.02038134303794968
-0.07809575298842712
0.05670705613199527
0.1254799240966417
-0.2606150031666228
-0.2309303715565885
0.5597009612047241
0.1575036165292511
0.07878664718918817
0.07554132612035321
-0.03103081119113157
-0.001092316392801684
-0.001874133988809833
-0.03266988942778601
0.1710519237768353
-0.1779938350189811
-0.05521863300732376
0.02130766640074013
-0.1467890525701218
-0.05281173023037141
0.1528908739283835
0.2770800100824609
-0.04024015164639472
0.0142965641607733
-0.255345530625696
-0.1302336364033188
0.2358286834751629
0.179112941188444
0.1295668050584846
0.0216232177564502
0.08884968167219159
0.05202746057693382
0.4524518845151259
0.01762581136930594
0.0973481015123879
0.04344901885885671
0.07191033562903364
-0.1153593558345253
-0.2423407403406711
-0.2007361583661414
-0.02012918258350239
-0.2022139831802558
0.2754747024837809
)
;

boundaryField
{
    FrontBack
    {
        type            empty;
    }
    Top
    {
        type            calculated;
        value           uniform 0;
    }
    In
    {
        type            calculated;
        value           uniform -1;
    }
    Bottom
    {
        type            calculated;
        value           uniform 0;
    }
    Out
    {
        type            calculated;
        value           nonuniform List<scalar> 10(1.03678789934657 1.064518293009568 1.021937681215235 1.020612366623031 0.9973287285013507 1.012908393006798 1.033874063429707 1.062761580257437 0.8672357032050565 0.8820345272007009);
    }
    circle
    {
        type            calculated;
        value           uniform 0;
    }
}


// ************************************************************************* //
