/*--------------------------------*- C++ -*----------------------------------*\
| =========                 |                                                 |
| \\      /  F ield         | OpenFOAM: The Open Source CFD Toolbox           |
|  \\    /   O peration     | Version:  2412                                  |
|   \\  /    A nd           | Website:  www.openfoam.com                      |
|    \\/     M anipulation  |                                                 |
\*---------------------------------------------------------------------------*/
FoamFile
{
    version     2.0;
    format      ascii;
    arch        "LSB;label=32;scalar=64";
    class       pointVectorField;
    location    "0";
    object      pointDisplacement;
}
// * * * * * * * * * * * * * * * * * * * * * * * * * * * * * * * * * * * * * //

dimensions      [0 1 0 0 0 0 0];

internalField   uniform (0 0 0);

boundaryField
{
    walls
    {
        type            fixedValue;
        value           uniform (0 0 0);
    }
    cylinder
    {
        type            solidBodyMotionDisplacement;
        value           uniform (0 0 0);
        solidBodyMotionFunction oscillatingRotatingMotion;
        oscillatingRotatingMotionCoeffs
        {
            origin          ( 0 0 0 );
            axis            ( 0 0 1 );
            omega           1.5;
            amplitude       ( 0 0 30 );
        }
    }
    outlet
    {
        type            fixedValue;
        value           nonuniform List<vector> 0();
    }
    inlet
    {
        type            fixedValue;
        value           uniform (0 0 0);
    }
    frontAndBack
    {
        type            empty;
    }
    procBoundary2to0
    {
        type            processor;
    }
    procBoundary2to3
    {
        type            processor;
    }
}


// ************************************************************************* //
