/*--------------------------------*- C++ -*----------------------------------*\
| =========                 |                                                 |
| \\      /  F ield         | OpenFOAM: The Open Source CFD Toolbox           |
|  \\    /   O peration     | Version:  2412                                  |
|   \\  /    A nd           | Website:  www.openfoam.com                      |
|    \\/     M anipulation  |                                                 |
\*---------------------------------------------------------------------------*/
FoamFile
{
    version     2.0;
    format      ascii;
    arch        "LSB;label=32;scalar=64";
    class       volVectorField;
    location    "0.7";
    object      cellDisplacement;
}
// * * * * * * * * * * * * * * * * * * * * * * * * * * * * * * * * * * * * * //

dimensions      [0 1 0 0 0 0 0];

internalField   nonuniform List<vector> 
256
(
(0.0197833 -0.00160493 0)
(0.0198398 0.00144708 0)
(0.0185001 0.00407593 0)
(0.0160469 0.00579417 0)
(0.012914 0.00635597 0)
(0.00949342 0.00577275 0)
(0.00611655 0.00428172 0)
(0.00288672 0.00218295 0)
(0.058673 -0.00381511 0)
(0.0585629 0.00470284 0)
(0.0549912 0.0120385 0)
(0.0485847 0.0170446 0)
(0.0403158 0.019105 0)
(0.031204 0.0182305 0)
(0.0219534 0.0148285 0)
(0.0128733 0.00951081 0)
(0.0955712 -0.00498704 0)
(0.0951076 0.00829557 0)
(0.0896508 0.0197149 0)
(0.0801634 0.0277392 0)
(0.067986 0.0315558 0)
(0.0544077 0.03108 0)
(0.0404545 0.0268021 0)
(0.0265332 0.019421 0)
(0.13081 -0.00515253 0)
(0.129698 0.0122915 0)
(0.122656 0.0272996 0)
(0.110803 0.0381353 0)
(0.0956629 0.0438623 0)
(0.0787444 0.0443625 0)
(0.0611615 0.0400639 0)
(0.0433856 0.0316655 0)
(0.16446 -0.00433509 0)
(0.162613 0.0168076 0)
(0.154227 0.0350179 0)
(0.140564 0.0484967 0)
(0.12327 0.0562785 0)
(0.103875 0.0581566 0)
(0.0836094 0.0545381 0)
(0.0629561 0.0460851 0)
(0.196669 -0.00245466 0)
(0.193996 0.0219577 0)
(0.18449 0.0430668 0)
(0.169475 0.0590698 0)
(0.15062 0.0689824 0)
(0.129518 0.0726008 0)
(0.107382 0.0702394 0)
(0.0846832 0.0625332 0)
(0.227515 0.000533932 0)
(0.224026 0.0279128 0)
(0.213575 0.0516801 0)
(0.197546 0.0701022 0)
(0.177643 0.0822491 0)
(0.155401 0.0878582 0)
(0.132056 0.0872281 0)
(0.108069 0.0809923 0)
(0.257154 0.00481056 0)
(0.252789 0.0348486 0)
(0.241541 0.0610854 0)
(0.224769 0.081861 0)
(0.204172 0.0962956 0)
(0.181256 0.104142 0)
(0.157232 0.105642 0)
(0.132517 0.101441 0)
(0.285617 0.0105207 0)
(0.280377 0.0430216 0)
(0.268437 0.0715657 0)
(0.251135 0.0946547 0)
(0.230086 0.11145 0)
(0.206818 0.121711 0)
(0.182475 0.12567 0)
(0.157511 0.124035 0)
(0.312994 0.0179985 0)
(0.30684 0.0527191 0)
(0.294242 0.0834594 0)
(0.276546 0.108823 0)
(0.255236 0.128036 0)
(0.231773 0.1409 0)
(0.207363 0.147626 0)
(0.182379 0.148961 0)
(0.339217 0.0275572 0)
(0.332075 0.0643105 0)
(0.318821 0.0970842 0)
(0.300767 0.124703 0)
(0.279314 0.146445 0)
(0.255782 0.162119 0)
(0.231327 0.171894 0)
(0.206419 0.176585 0)
(0.364091 0.0396707 0)
(0.355823 0.078154 0)
(0.341875 0.112883 0)
(0.323474 0.142736 0)
(0.301847 0.167144 0)
(0.278252 0.185843 0)
(0.253685 0.198991 0)
(0.228687 0.207362 0)
(0.387223 0.0548015 0)
(0.377702 0.094865 0)
(0.363021 0.131382 0)
(0.344125 0.163535 0)
(0.322205 0.190689 0)
(0.298248 0.212684 0)
(0.273361 0.229533 0)
(0.247882 0.242001 0)
(0.407873 0.0738164 0)
(0.396973 0.115026 0)
(0.381342 0.153207 0)
(0.361831 0.18758 0)
(0.33925 0.217702 0)
(0.31453 0.243291 0)
(0.288515 0.264321 0)
(0.261808 0.281252 0)
(0.424473 0.0967986 0)
(0.411957 0.138777 0)
(0.395166 0.17835 0)
(0.374613 0.214967 0)
(0.350922 0.248164 0)
(0.324704 0.277653 0)
(0.296659 0.303242 0)
(0.267123 0.32522 0)
(0.432702 0.122637 0)
(0.418598 0.164459 0)
(0.400463 0.204697 0)
(0.378471 0.242963 0)
(0.352834 0.27889 0)
(0.323799 0.312131 0)
(0.291645 0.342365 0)
(0.256683 0.369303 0)
(0.00291693 0.00209313 0)
(0.00535608 0.00408712 0)
(0.00716252 0.00617421 0)
(0.00829552 0.00848335 0)
(0.00867626 0.0110592 0)
(0.00819755 0.0137902 0)
(0.00679116 0.0164251 0)
(0.00450157 0.0185296 0)
(0.0127839 0.0094112 0)
(0.0189706 0.0151577 0)
(0.0233261 0.0212975 0)
(0.0256976 0.0280429 0)
(0.0258561 0.0353468 0)
(0.023671 0.042934 0)
(0.0190071 0.0499964 0)
(0.01214 0.0555791 0)
(0.0259703 0.0194829 0)
(0.0347177 0.0287125 0)
(0.0404314 0.0385872 0)
(0.0430191 0.0493843 0)
(0.0421935 0.0609669 0)
(0.0377069 0.072667 0)
(0.0295368 0.0833028 0)
(0.0182201 0.0913405 0)
(0.0421284 0.0322289 0)
(0.052158 0.0446012 0)
(0.0581962 0.0579569 0)
(0.0601158 0.0724675 0)
(0.0575341 0.0877238 0)
(0.0502651 0.10281 0)
(0.0384234 0.116145 0)
(0.0228562 0.12597 0)
(0.0607173 0.0474644 0)
(0.0709554 0.0627831 0)
(0.0762936 0.0793013 0)
(0.0766901 0.0970741 0)
(0.0717537 0.115494 0)
(0.0613128 0.133252 0)
(0.0457111 0.148562 0)
(0.0260867 0.159385 0)
(0.0813078 0.0651474 0)
(0.0906337 0.0831224 0)
(0.094393 0.102526 0)
(0.0925408 0.123168 0)
(0.0846739 0.144106 0)
(0.0707687 0.163858 0)
(0.0513859 0.180411 0)
(0.0279174 0.191809 0)
(0.103306 0.0851524 0)
(0.110806 0.105624 0)
(0.112141 0.127568 0)
(0.107358 0.150562 0)
(0.096118 0.173484 0)
(0.0785277 0.194564 0)
(0.0553711 0.211782 0)
(0.0283112 0.223182 0)
(0.126203 0.107522 0)
(0.130953 0.130211 0)
(0.12914 0.154364 0)
(0.120853 0.179277 0)
(0.105853 0.203531 0)
(0.0844267 0.225319 0)
(0.0575887 0.242603 0)
(0.0271162 0.25359 0)
(0.149391 0.132281 0)
(0.150578 0.156974 0)
(0.144936 0.182942 0)
(0.132643 0.209198 0)
(0.113586 0.234237 0)
(0.0882454 0.256125 0)
(0.0578031 0.272957 0)
(0.0242134 0.282997 0)
(0.172254 0.159649 0)
(0.169105 0.186026 0)
(0.159022 0.213371 0)
(0.14227 0.240451 0)
(0.118918 0.265581 0)
(0.0896439 0.286941 0)
(0.0557922 0.302677 0)
(0.0192717 0.311519 0)
(0.193894 0.18983 0)
(0.185726 0.217597 0)
(0.170658 0.245805 0)
(0.149081 0.272999 0)
(0.121302 0.297518 0)
(0.0881691 0.317626 0)
(0.0510844 0.331822 0)
(0.0119845 0.339066 0)
(0.213233 0.223264 0)
(0.199371 0.251917 0)
(0.178778 0.280316 0)
(0.152148 0.30685 0)
(0.119917 0.329957 0)
(0.0831422 0.348159 0)
(0.0431628 0.360248 0)
(0.00174126 0.365552 0)
(0.228901 0.260492 0)
(0.208559 0.289426 0)
(0.182083 0.317114 0)
(0.150201 0.341999 0)
(0.113731 0.36273 0)
(0.0736213 0.378202 0)
(0.0312197 0.387617 0)
(-0.0119847 0.390545 0)
(0.238304 0.302161 0)
(0.210971 0.330279 0)
(0.178358 0.355978 0)
(0.141569 0.377885 0)
(0.101306 0.39512 0)
(0.0585643 0.407018 0)
(0.0143687 0.413146 0)
(-0.03008 0.413355 0)
(0.237617 0.34812 0)
(0.202896 0.373683 0)
(0.164742 0.395384 0)
(0.123895 0.412658 0)
(0.0809797 0.425173 0)
(0.0366776 0.43268 0)
(-0.00823516 0.435044 0)
(-0.0529628 0.43225 0)
(0.219249 0.392684 0)
(0.179704 0.412284 0)
(0.138428 0.427912 0)
(0.0958183 0.43942 0)
(0.0522862 0.446696 0)
(0.0082506 0.44967 0)
(-0.0358645 0.448313 0)
(-0.0796342 0.442639 0)
)
;

boundaryField
{
    walls
    {
        type            cellMotion;
        value           uniform (0 0 0);
    }
    cylinder
    {
        type            cellMotion;
        value           nonuniform List<vector> 
16
(
(0.432702 0.122637 0)
(0.418598 0.164459 0)
(0.400463 0.204697 0)
(0.378471 0.242963 0)
(0.352834 0.27889 0)
(0.323799 0.312131 0)
(0.291645 0.342365 0)
(0.256683 0.369303 0)
(0.219249 0.392684 0)
(0.179704 0.412284 0)
(0.138428 0.427912 0)
(0.0958183 0.43942 0)
(0.0522862 0.446696 0)
(0.0082506 0.44967 0)
(-0.0358645 0.448313 0)
(-0.0796342 0.442639 0)
)
;
    }
    outlet
    {
        type            cellMotion;
        value           uniform (0 0 0);
    }
    inlet
    {
        type            cellMotion;
        value           nonuniform List<vector> 0();
    }
    frontAndBack
    {
        type            empty;
    }
    procBoundary1to0
    {
        type            processor;
        value           nonuniform List<vector> 
16
(
(0.0185524 -0.00449384 0)
(0.0556242 -0.0121097 0)
(0.09144 -0.0181655 0)
(0.126086 -0.022765 0)
(0.159552 -0.0259466 0)
(0.191988 -0.0277204 0)
(0.223411 -0.0280414 0)
(0.253825 -0.0267877 0)
(0.28328 -0.0237977 0)
(0.311793 -0.0188238 0)
(0.339363 -0.0114671 0)
(0.36581 -0.00126428 0)
(0.390748 0.0124233 0)
(0.413478 0.0303557 0)
(0.432291 0.0530771 0)
(0.442639 0.0796342 0)
)
;
    }
    procBoundary1to3
    {
        type            processor;
        value           nonuniform List<vector> 
16
(
(0.00160924 0.0197863 0)
(0.00383113 0.0585807 0)
(0.00502001 0.0955061 0)
(0.0052239 0.130686 0)
(0.00444205 0.164366 0)
(0.00263138 0.19652 0)
(-0.000303764 0.227379 0)
(-0.00448383 0.256961 0)
(-0.0101495 0.285431 0)
(-0.0175251 0.312761 0)
(-0.0270813 0.339005 0)
(-0.0391418 0.363885 0)
(-0.0543954 0.38706 0)
(-0.0735211 0.407794 0)
(-0.0966884 0.424447 0)
(-0.122637 0.432702 0)
)
;
    }
}


// ************************************************************************* //
