/*--------------------------------*- C++ -*----------------------------------*\
| =========                 |                                                 |
| \\      /  F ield         | OpenFOAM: The Open Source CFD Toolbox           |
|  \\    /   O peration     | Version:  2412                                  |
|   \\  /    A nd           | Website:  www.openfoam.com                      |
|    \\/     M anipulation  |                                                 |
\*---------------------------------------------------------------------------*/
FoamFile
{
    version     2.0;
    format      ascii;
    arch        "LSB;label=32;scalar=64";
    class       surfaceScalarField;
    location    "0.7";
    object      meshPhi;
}
// * * * * * * * * * * * * * * * * * * * * * * * * * * * * * * * * * * * * * //

dimensions      [0 3 -1 0 0 0 0];

internalField   nonuniform List<scalar> 
480
(
0.00232203
-0.00241204
0.00259879
-0.000373633
0.00270136
0.00159228
0.00260783
0.00303599
0.00226483
0.00363832
0.00173534
0.0034001
0.00108485
0.00260514
0.00177873
0.000701608
0.00678963
-0.00432996
0.00748678
-0.000723614
0.00775587
0.0026563
0.00751135
0.00512261
0.00663967
0.00626815
0.00527297
0.00609883
0.00354072
0.00498293
0.003683
0.00250512
0.0109249
-0.00575002
0.0118348
-0.00102346
0.0122075
0.00330465
0.0118812
0.00646938
0.0107415
0.00807561
0.00890812
0.00813841
0.00649736
0.00699644
0.00552685
0.00507969
0.0148078
-0.00666968
0.0157613
-0.00117518
0.0161699
0.00373647
0.015821
0.00732304
0.0146103
0.00928875
0.0126043
0.00963525
0.00989124
0.00867199
0.00727783
0.00839576
0.0185081
-0.00716437
0.0193988
-0.00123053
0.0197983
0.00399056
0.0194851
0.00783339
0.0183463
0.0100718
0.0163948
0.0106966
0.0137191
0.0100016
0.00882301
0.0124217
0.0220414
-0.00735123
0.0228349
-0.00120725
0.023226
0.00412313
0.022998
0.00808249
0.0220518
0.010512
0.0203529
0.0113852
0.0179792
0.0109938
0.010066
0.0170876
0.0254189
-0.00730453
0.0261382
-0.00113014
0.0265475
0.00415317
0.0264675
0.00814279
0.0258498
0.0107063
0.0245269
0.0117391
0.022538
0.011508
0.0106765
0.022055
0.0286507
-0.00711675
0.0292796
-0.0010766
0.0297437
0.00401297
0.0298594
0.00788834
0.0296977
0.0104578
0.0288488
0.0115754
0.0272122
0.0114543
0.0106587
0.027011
0.0317829
-0.00673899
0.0322382
-0.00100249
0.0327443
0.00380508
0.0330522
0.00748213
0.033328
0.00990698
0.0331275
0.0109717
0.0320425
0.0109471
0.0103102
0.0322158
0.0349336
-0.0062122
0.0352559
-0.000926847
0.0357986
0.00356467
0.0363211
0.00699522
0.0368783
0.00920581
0.0373422
0.0102201
0.0371413
0.0103497
0.0099496
0.0380858
0.0381122
-0.00538698
0.0384774
-0.000711243
0.0391688
0.00329169
0.0400083
0.00637496
0.0409277
0.00843004
0.0419756
0.00950658
0.0427777
0.00982496
0.00961208
0.0447521
0.0413365
-0.00446097
0.04187
-0.000528512
0.0428368
0.00290436
0.0441514
0.00561229
0.045736
0.00752975
0.0475226
0.00867607
0.0493194
0.00915075
0.00911684
0.0522753
0.0447264
-0.00317673
0.0454874
-5.72811e-05
0.0468453
0.00266563
0.0487745
0.00488327
0.0511824
0.00654013
0.0539157
0.0076585
0.0568084
0.00825359
0.00835199
0.0607262
0.0482412
-0.00121275
0.0493253
0.000863806
0.0512235
0.00269262
0.0538518
0.00423526
0.0571151
0.00545765
0.060845
0.00636088
0.0649366
0.00691352
0.0071001
0.0698386
0.0513787
0.000928637
0.0528546
0.00186426
0.0553133
0.00272708
0.0586421
0.00347968
0.0627491
0.00411383
0.067484
0.00462099
0.0727174
0.00498183
0.00520902
0.0784507
0.0492206
0.0511839
0.0540484
0.0577037
0.062019
0.0668436
0.0719837
0.07723
0.00084038
-0.00244216
0.00112785
-0.00370445
0.00132836
-0.00511534
0.00145837
-0.00605438
0.00168301
-0.00665931
0.00191955
-0.00699085
0.00197755
-0.00650346
-0.00507389
0.00284027
-0.00581775
0.00366226
-0.00797725
0.00418236
-0.010363
0.00451076
-0.0118257
0.00509521
-0.0126366
0.00571611
-0.0128819
0.00591412
-0.0117903
-0.00918933
0.00551096
-0.00985999
0.00668194
-0.0125807
0.00738283
-0.0154724
0.00784469
-0.0172408
0.00859995
-0.0180609
0.00941926
-0.0179292
0.0097455
-0.0161303
-0.0125403
0.00881409
-0.0141969
0.0101303
-0.0171676
0.0109161
-0.0202664
0.0114528
-0.0220855
0.0122225
-0.0226667
0.0130556
-0.0219579
0.013439
-0.0194261
-0.01506
0.0127225
-0.0186104
0.0140007
-0.0216333
0.0147505
-0.0245888
0.0152838
-0.0262392
0.0159708
-0.0265069
0.0166696
-0.0252081
0.0170045
-0.0219434
-0.0168818
0.0171813
-0.0227595
0.0182647
-0.0256526
0.0188672
-0.0282992
0.0192846
-0.0295762
0.0197976
-0.0293216
0.0202691
-0.02739
0.0204871
-0.0235175
-0.0179811
0.0219212
-0.0259977
0.0228359
-0.028841
0.0232318
-0.031145
0.0234107
-0.0319152
0.0236344
-0.0310663
0.0238385
-0.0285549
0.023941
-0.0242536
-0.0184434
0.0266241
-0.0280839
0.0275018
-0.0307314
0.0277537
-0.0327763
0.0276522
-0.0331459
0.027475
-0.0317073
0.027385
-0.0286052
0.027398
-0.0240254
-0.018231
0.0314519
-0.0293637
0.0322049
-0.0315858
0.0323217
-0.0331091
0.0319737
-0.033033
0.03141
-0.031142
0.0309941
-0.0276106
0.0308802
-0.0229033
-0.0173481
0.0369021
-0.0297106
0.0371671
-0.0313841
0.0369754
-0.0321485
0.0363684
-0.0315493
0.03549
-0.0293563
0.0346978
-0.0256814
0.0343347
-0.0210488
-0.0159005
0.0430684
-0.0286756
0.0425917
-0.0297897
0.0418475
-0.0298134
0.0407978
-0.0286597
0.039574
-0.0262467
0.0384265
-0.0227411
0.0376979
-0.0184771
-0.0138391
0.049932
-0.0260978
0.0485589
-0.0266227
0.0470083
-0.0259315
0.045296
-0.0242768
0.0436412
-0.0217736
0.0422082
-0.0186477
0.0411615
-0.0150418
-0.0111136
0.0575316
-0.0216683
0.0550652
-0.0216535
0.0525003
-0.020412
0.0499792
-0.0185046
0.0477709
-0.0161532
0.0460357
-0.0135223
0.0448487
-0.0107286
-0.00773687
0.065657
-0.015149
0.0619069
-0.01476
0.0581793
-0.0133145
0.0547704
-0.0115895
0.0519098
-0.00971789
0.0497995
-0.00779094
0.0484569
-0.00584386
-0.00384384
0.073152
-0.00636901
0.0678994
-0.00584758
0.0630288
-0.00492699
0.0588016
-0.00396427
0.0553776
-0.00299215
0.0528961
-0.00201802
0.0513912
-0.00105333
-0.000103867
0.0706832
0.0645704
0.0592883
0.0549588
0.0516561
0.0494262
0.0482969
)
;

boundaryField
{
    walls
    {
        type            calculated;
        value           uniform 0;
    }
    cylinder
    {
        type            calculated;
        value           nonuniform List<scalar> 
16
(
1.09721e-11
-1.34696e-11
-4.46747e-12
8.13096e-12
-2.28932e-11
1.65876e-11
2.56844e-11
-1.30005e-11
1.30025e-11
-2.56821e-11
-1.65827e-11
2.28971e-11
-8.12787e-12
4.47085e-12
1.34717e-11
-1.09696e-11
)
;
    }
    outlet
    {
        type            calculated;
        value           uniform 0;
    }
    inlet
    {
        type            calculated;
        value           nonuniform List<scalar> 0();
    }
    frontAndBack
    {
        type            empty;
    }
    procBoundary1to0
    {
        type            processor;
        value           nonuniform List<scalar> 
16
(
-0.00204074
-0.00611322
-0.0100903
-0.0139478
-0.0176923
-0.0213332
-0.0248875
-0.0283593
-0.0317529
-0.0350388
-0.0381601
-0.0413102
-0.0447096
-0.0481087
-0.0509603
-0.0482555
)
;
    }
    procBoundary1to3
    {
        type            processor;
        value           nonuniform List<scalar> 
16
(
0.00199803
0.0059594
0.00983851
0.0136123
0.0172549
0.020774
0.0241974
0.0275616
0.0309022
0.0342248
0.037469
0.0407621
0.0443098
0.047901
0.0508935
0.0482466
)
;
    }
}


// ************************************************************************* //
