/*--------------------------------*- C++ -*----------------------------------*\
| =========                 |                                                 |
| \\      /  F ield         | OpenFOAM: The Open Source CFD Toolbox           |
|  \\    /   O peration     | Version:  2412                                  |
|   \\  /    A nd           | Website:  www.openfoam.com                      |
|    \\/     M anipulation  |                                                 |
\*---------------------------------------------------------------------------*/
FoamFile
{
    version     2.0;
    format      ascii;
    arch        "LSB;label=32;scalar=64";
    class       pointVectorField;
    location    "0.7";
    object      pointDisplacement;
}
// * * * * * * * * * * * * * * * * * * * * * * * * * * * * * * * * * * * * * //

dimensions      [0 1 0 0 0 0 0];

internalField   nonuniform List<vector> 
578
(
(0 0 0)
(0 0 0)
(0 0 0)
(0 0 0)
(0 0 0)
(0 0 0)
(0 0 0)
(0 0 0)
(0 0 0)
(0.0381981 -0.00552932 0)
(0.0392691 0.000172273 0)
(0.0380348 0.00557215 0)
(0.0345882 0.00975822 0)
(0.0295092 0.0121014 0)
(0.0235062 0.0123896 0)
(0.0171946 0.0107902 0)
(0.0109394 0.00769476 0)
(0.0076687 0.00565452 0)
(0.0753672 -0.0097881 0)
(0.0770288 0.00104232 0)
(0.0746328 0.0111942 0)
(0.0684002 0.0191514 0)
(0.0593074 0.0238849 0)
(0.048511 0.0250177 0)
(0.037023 0.0227554 0)
(0.025459 0.0176518 0)
(0.0192906 0.0142701 0)
(0.111016 -0.0127812 0)
(0.112843 0.00260895 0)
(0.109326 0.0169075 0)
(0.100866 0.0282374 0)
(0.0886978 0.0353444 0)
(0.074238 0.0377401 0)
(0.058721 0.0356023 0)
(0.0429085 0.0295122 0)
(0.0342176 0.0254804 0)
(0.145266 -0.0145582 0)
(0.146938 0.00490358 0)
(0.142341 0.0228622 0)
(0.132105 0.0372512 0)
(0.117617 0.0467124 0)
(0.100428 0.050689 0)
(0.0818837 0.049308 0)
(0.0628176 0.0431207 0)
(0.051989 0.039117 0)
(0.178205 -0.0151177 0)
(0.179473 0.00799782 0)
(0.173869 0.0292213 0)
(0.162228 0.0464255 0)
(0.146022 0.0582241 0)
(0.126862 0.0640273 0)
(0.106136 0.0639121 0)
(0.0847063 0.0583856 0)
(0.0721012 0.0550448 0)
(0.209931 -0.0144198 0)
(0.210586 0.0119939 0)
(0.204055 0.0361637 0)
(0.191306 0.0559915 0)
(0.173858 0.0701164 0)
(0.153335 0.0779437 0)
(0.13113 0.0795094 0)
(0.108101 0.0752858 0)
(0.0940327 0.0731806 0)
(0.240509 -0.0123666 0)
(0.240402 0.0170348 0)
(0.233012 0.0438913 0)
(0.219388 0.066193 0)
(0.201066 0.0826408 0)
(0.179655 0.0926553 0)
(0.156527 0.0962436 0)
(0.132522 0.0938614 0)
(0.117232 0.0934926 0)
(0.27 -0.00880588 0)
(0.269011 0.02331 0)
(0.260812 0.0526399 0)
(0.246498 0.0773016 0)
(0.227571 0.0960774 0)
(0.205618 0.108416 0)
(0.181984 0.114315 0)
(0.157486 0.114229 0)
(0.141141 0.116031 0)
(0.298449 -0.00351562 0)
(0.296481 0.0310755 0)
(0.287497 0.0627008 0)
(0.272614 0.0896345 0)
(0.253278 0.110751 0)
(0.23101 0.125538 0)
(0.207142 0.133997 0)
(0.182479 0.1366 0)
(0.165153 0.140942 0)
(0.325866 0.00382841 0)
(0.322802 0.0406575 0)
(0.313014 0.0744023 0)
(0.297614 0.103525 0)
(0.27799 0.12701 0)
(0.255554 0.144386 0)
(0.231592 0.155651 0)
(0.206913 0.161286 0)
(0.188548 0.16847 0)
(0.352142 0.0136385 0)
(0.347819 0.0524349 0)
(0.337164 0.0881162 0)
(0.321252 0.119357 0)
(0.301371 0.145263 0)
(0.278823 0.165395 0)
(0.254789 0.179723 0)
(0.230064 0.18872 0)
(0.210419 0.198982 0)
(0.376987 0.0264244 0)
(0.371224 0.0668847 0)
(0.359618 0.104328 0)
(0.343138 0.137638 0)
(0.32293 0.166028 0)
(0.300158 0.189093 0)
(0.27591 0.206767 0)
(0.250932 0.219474 0)
(0.229588 0.233016 0)
(0.399846 0.0428684 0)
(0.392454 0.0846403 0)
(0.37977 0.123627 0)
(0.362591 0.158928 0)
(0.341867 0.189875 0)
(0.318575 0.216088 0)
(0.293684 0.237453 0)
(0.267917 0.254267 0)
(0.244193 0.271239 0)
(0.41954 0.0635368 0)
(0.410327 0.10612 0)
(0.396367 0.146348 0)
(0.378246 0.183527 0)
(0.356665 0.217099 0)
(0.332367 0.246693 0)
(0.306122 0.272113 0)
(0.278552 0.293487 0)
(0.251234 0.314003 0)
(0.433034 0.0880802 0)
(0.421937 0.130701 0)
(0.40655 0.171595 0)
(0.387183 0.210262 0)
(0.364217 0.24626 0)
(0.338076 0.279221 0)
(0.309217 0.308861 0)
(0.278046 0.335052 0)
(0.245193 0.358807 0)
(0.438727 0.10138 0)
(0.426678 0.143894 0)
(0.410519 0.185023 0)
(0.390407 0.22437 0)
(0.366535 0.261556 0)
(0.339133 0.296223 0)
(0.308465 0.328038 0)
(0.274826 0.356693 0)
(0.238541 0.381913 0)
(0 0 0)
(0 0 0)
(0 0 0)
(0 0 0)
(0 0 0)
(0 0 0)
(0 0 0)
(0 0 0)
(0 0 0)
(0.0381981 -0.00552932 0)
(0.0392691 0.000172273 0)
(0.0380348 0.00557215 0)
(0.0345882 0.00975822 0)
(0.0295092 0.0121014 0)
(0.0235062 0.0123896 0)
(0.0171946 0.0107902 0)
(0.0109394 0.00769476 0)
(0.0076687 0.00565452 0)
(0.0753672 -0.0097881 0)
(0.0770288 0.00104232 0)
(0.0746328 0.0111942 0)
(0.0684002 0.0191514 0)
(0.0593074 0.0238849 0)
(0.048511 0.0250177 0)
(0.037023 0.0227554 0)
(0.025459 0.0176518 0)
(0.0192906 0.0142701 0)
(0.111016 -0.0127812 0)
(0.112843 0.00260895 0)
(0.109326 0.0169075 0)
(0.100866 0.0282374 0)
(0.0886978 0.0353444 0)
(0.074238 0.0377401 0)
(0.058721 0.0356023 0)
(0.0429085 0.0295122 0)
(0.0342176 0.0254804 0)
(0.145266 -0.0145582 0)
(0.146938 0.00490358 0)
(0.142341 0.0228622 0)
(0.132105 0.0372512 0)
(0.117617 0.0467124 0)
(0.100428 0.050689 0)
(0.0818837 0.049308 0)
(0.0628176 0.0431207 0)
(0.051989 0.039117 0)
(0.178205 -0.0151177 0)
(0.179473 0.00799782 0)
(0.173869 0.0292213 0)
(0.162228 0.0464255 0)
(0.146022 0.0582241 0)
(0.126862 0.0640273 0)
(0.106136 0.0639121 0)
(0.0847063 0.0583856 0)
(0.0721012 0.0550448 0)
(0.209931 -0.0144198 0)
(0.210586 0.0119939 0)
(0.204055 0.0361637 0)
(0.191306 0.0559915 0)
(0.173858 0.0701164 0)
(0.153335 0.0779437 0)
(0.13113 0.0795094 0)
(0.108101 0.0752858 0)
(0.0940327 0.0731806 0)
(0.240509 -0.0123666 0)
(0.240402 0.0170348 0)
(0.233012 0.0438913 0)
(0.219388 0.066193 0)
(0.201066 0.0826408 0)
(0.179655 0.0926553 0)
(0.156527 0.0962436 0)
(0.132522 0.0938614 0)
(0.117232 0.0934926 0)
(0.27 -0.00880588 0)
(0.269011 0.02331 0)
(0.260812 0.0526399 0)
(0.246498 0.0773016 0)
(0.227571 0.0960774 0)
(0.205618 0.108416 0)
(0.181984 0.114315 0)
(0.157486 0.114229 0)
(0.141141 0.116031 0)
(0.298449 -0.00351562 0)
(0.296481 0.0310755 0)
(0.287497 0.0627008 0)
(0.272614 0.0896345 0)
(0.253278 0.110751 0)
(0.23101 0.125538 0)
(0.207142 0.133997 0)
(0.182479 0.1366 0)
(0.165153 0.140942 0)
(0.325866 0.00382841 0)
(0.322802 0.0406575 0)
(0.313014 0.0744023 0)
(0.297614 0.103525 0)
(0.27799 0.12701 0)
(0.255554 0.144386 0)
(0.231592 0.155651 0)
(0.206913 0.161286 0)
(0.188548 0.16847 0)
(0.352142 0.0136385 0)
(0.347819 0.0524349 0)
(0.337164 0.0881162 0)
(0.321252 0.119357 0)
(0.301371 0.145263 0)
(0.278823 0.165395 0)
(0.254789 0.179723 0)
(0.230064 0.18872 0)
(0.210419 0.198982 0)
(0.376987 0.0264244 0)
(0.371224 0.0668847 0)
(0.359618 0.104328 0)
(0.343138 0.137638 0)
(0.32293 0.166028 0)
(0.300158 0.189093 0)
(0.27591 0.206767 0)
(0.250932 0.219474 0)
(0.229588 0.233016 0)
(0.399846 0.0428684 0)
(0.392454 0.0846403 0)
(0.37977 0.123627 0)
(0.362591 0.158928 0)
(0.341867 0.189875 0)
(0.318575 0.216088 0)
(0.293684 0.237453 0)
(0.267917 0.254267 0)
(0.244193 0.271239 0)
(0.41954 0.0635368 0)
(0.410327 0.10612 0)
(0.396367 0.146348 0)
(0.378246 0.183527 0)
(0.356665 0.217099 0)
(0.332367 0.246693 0)
(0.306122 0.272113 0)
(0.278552 0.293487 0)
(0.251234 0.314003 0)
(0.433034 0.0880802 0)
(0.421937 0.130701 0)
(0.40655 0.171595 0)
(0.387183 0.210262 0)
(0.364217 0.24626 0)
(0.338076 0.279221 0)
(0.309217 0.308861 0)
(0.278046 0.335052 0)
(0.245193 0.358807 0)
(0.438727 0.10138 0)
(0.426678 0.143894 0)
(0.410519 0.185023 0)
(0.390407 0.22437 0)
(0.366535 0.261556 0)
(0.339133 0.296223 0)
(0.308465 0.328038 0)
(0.274826 0.356693 0)
(0.238541 0.381913 0)
(0 0 0)
(0 0 0)
(0 0 0)
(0 0 0)
(0 0 0)
(0 0 0)
(0 0 0)
(0 0 0)
(0.00998679 0.00766353 0)
(0.0136997 0.01166 0)
(0.0161292 0.0159842 0)
(0.0171504 0.0207226 0)
(0.0166264 0.0257788 0)
(0.0144474 0.0307939 0)
(0.0106402 0.035155 0)
(0.00554393 0.0381589 0)
(0.0231063 0.0181744 0)
(0.0293697 0.0259266 0)
(0.033135 0.0343186 0)
(0.0342144 0.0434299 0)
(0.0323847 0.0529809 0)
(0.02751 0.0622379 0)
(0.0197528 0.0700814 0)
(0.0098216 0.0752914 0)
(0.0387528 0.0312454 0)
(0.0463931 0.0424574 0)
(0.0504627 0.0545943 0)
(0.0507419 0.067636 0)
(0.0469534 0.0810498 0)
(0.0390106 0.0937495 0)
(0.0272816 0.104219 0)
(0.0128437 0.110916 0)
(0.0565084 0.0467613 0)
(0.0644256 0.0611584 0)
(0.0678507 0.0767002 0)
(0.0665517 0.0931949 0)
(0.0602446 0.109833 0)
(0.0489527 0.125215 0)
(0.033287 0.137548 0)
(0.0146606 0.14514 0)
(0.0759305 0.0646241 0)
(0.0830988 0.0819347 0)
(0.0850093 0.100522 0)
(0.0814441 0.119971 0)
(0.072154 0.139196 0)
(0.0573155 0.156548 0)
(0.0377879 0.170075 0)
(0.0152729 0.178058 0)
(0.0965458 0.0847576 0)
(0.102027 0.104716 0)
(0.10164 0.125966 0)
(0.0952018 0.147845 0)
(0.0825463 0.169026 0)
(0.06403 0.187683 0)
(0.0407538 0.20183 0)
(0.0146382 0.209758 0)
(0.117854 0.107126 0)
(0.120796 0.129451 0)
(0.117406 0.152957 0)
(0.107573 0.176734 0)
(0.0912523 0.199252 0)
(0.0689904 0.218599 0)
(0.0420995 0.232823 0)
(0.0126553 0.240311 0)
(0.139321 0.131747 0)
(0.138938 0.156136 0)
(0.131925 0.181464 0)
(0.118259 0.206586 0)
(0.0980445 0.229834 0)
(0.0720228 0.249285 0)
(0.0416783 0.263071 0)
(0.00916654 0.269775 0)
(0.160373 0.158736 0)
(0.155946 0.184846 0)
(0.144747 0.211514 0)
(0.126875 0.237397 0)
(0.10261 0.260755 0)
(0.0728724 0.27971 0)
(0.039264 0.292569 0)
(0.00394254 0.298205 0)
(0.180284 0.188281 0)
(0.171161 0.215722 0)
(0.155283 0.243186 0)
(0.132908 0.269172 0)
(0.104513 0.291953 0)
(0.0711683 0.309801 0)
(0.034523 0.321301 0)
(-0.00334952 0.325612 0)
(0.198093 0.220662 0)
(0.183662 0.248937 0)
(0.162685 0.276527 0)
(0.13562 0.30187 0)
(0.10313 0.323353 0)
(0.0663793 0.339498 0)
(0.0269791 0.3492 0)
(-0.0131388 0.351899 0)
(0.212549 0.25629 0)
(0.192219 0.284728 0)
(0.165813 0.311611 0)
(0.133997 0.335427 0)
(0.0975915 0.354801 0)
(0.0577691 0.368589 0)
(0.016016 0.376016 0)
(-0.0259615 0.376779 0)
(0.221708 0.295613 0)
(0.195002 0.323243 0)
(0.163048 0.348293 0)
(0.126686 0.36948 0)
(0.0867824 0.385807 0)
(0.0444177 0.396526 0)
(0.000856961 0.401188 0)
(-0.0425145 0.399704 0)
(0.222452 0.338603 0)
(0.189226 0.363891 0)
(0.152112 0.385534 0)
(0.1119 0.402759 0)
(0.0693419 0.415036 0)
(0.0253056 0.421999 0)
(-0.01926 0.423467 0)
(-0.0633379 0.419472 0)
(0.209799 0.381808 0)
(0.171359 0.402418 0)
(0.130634 0.418923 0)
(0.0881609 0.431045 0)
(0.0444718 0.438595 0)
(0.000140482 0.441453 0)
(-0.0442294 0.439577 0)
(-0.0880243 0.433018 0)
(0.199958 0.403455 0)
(0.15945 0.421112 0)
(0.117406 0.434713 0)
(0.074231 0.444127 0)
(0.0303415 0.449265 0)
(-0.0138403 0.450075 0)
(-0.0578887 0.446552 0)
(-0.10138 0.438727 0)
(0 0 0)
(0 0 0)
(0 0 0)
(0 0 0)
(0 0 0)
(0 0 0)
(0 0 0)
(0 0 0)
(0.00998679 0.00766353 0)
(0.0136997 0.01166 0)
(0.0161292 0.0159842 0)
(0.0171504 0.0207226 0)
(0.0166264 0.0257788 0)
(0.0144474 0.0307939 0)
(0.0106402 0.035155 0)
(0.00554393 0.0381589 0)
(0.0231063 0.0181744 0)
(0.0293697 0.0259266 0)
(0.033135 0.0343186 0)
(0.0342144 0.0434299 0)
(0.0323847 0.0529809 0)
(0.02751 0.0622379 0)
(0.0197528 0.0700814 0)
(0.0098216 0.0752914 0)
(0.0387528 0.0312454 0)
(0.0463931 0.0424574 0)
(0.0504627 0.0545943 0)
(0.0507419 0.067636 0)
(0.0469534 0.0810498 0)
(0.0390106 0.0937495 0)
(0.0272816 0.104219 0)
(0.0128437 0.110916 0)
(0.0565084 0.0467613 0)
(0.0644256 0.0611584 0)
(0.0678507 0.0767002 0)
(0.0665517 0.0931949 0)
(0.0602446 0.109833 0)
(0.0489527 0.125215 0)
(0.033287 0.137548 0)
(0.0146606 0.14514 0)
(0.0759305 0.0646241 0)
(0.0830988 0.0819347 0)
(0.0850093 0.100522 0)
(0.0814441 0.119971 0)
(0.072154 0.139196 0)
(0.0573155 0.156548 0)
(0.0377879 0.170075 0)
(0.0152729 0.178058 0)
(0.0965458 0.0847576 0)
(0.102027 0.104716 0)
(0.10164 0.125966 0)
(0.0952018 0.147845 0)
(0.0825463 0.169026 0)
(0.06403 0.187683 0)
(0.0407538 0.20183 0)
(0.0146382 0.209758 0)
(0.117854 0.107126 0)
(0.120796 0.129451 0)
(0.117406 0.152957 0)
(0.107573 0.176734 0)
(0.0912523 0.199252 0)
(0.0689904 0.218599 0)
(0.0420995 0.232823 0)
(0.0126553 0.240311 0)
(0.139321 0.131747 0)
(0.138938 0.156136 0)
(0.131925 0.181464 0)
(0.118259 0.206586 0)
(0.0980445 0.229834 0)
(0.0720228 0.249285 0)
(0.0416783 0.263071 0)
(0.00916654 0.269775 0)
(0.160373 0.158736 0)
(0.155946 0.184846 0)
(0.144747 0.211514 0)
(0.126875 0.237397 0)
(0.10261 0.260755 0)
(0.0728724 0.27971 0)
(0.039264 0.292569 0)
(0.00394254 0.298205 0)
(0.180284 0.188281 0)
(0.171161 0.215722 0)
(0.155283 0.243186 0)
(0.132908 0.269172 0)
(0.104513 0.291953 0)
(0.0711683 0.309801 0)
(0.034523 0.321301 0)
(-0.00334952 0.325612 0)
(0.198093 0.220662 0)
(0.183662 0.248937 0)
(0.162685 0.276527 0)
(0.13562 0.30187 0)
(0.10313 0.323353 0)
(0.0663793 0.339498 0)
(0.0269791 0.3492 0)
(-0.0131388 0.351899 0)
(0.212549 0.25629 0)
(0.192219 0.284728 0)
(0.165813 0.311611 0)
(0.133997 0.335427 0)
(0.0975915 0.354801 0)
(0.0577691 0.368589 0)
(0.016016 0.376016 0)
(-0.0259615 0.376779 0)
(0.221708 0.295613 0)
(0.195002 0.323243 0)
(0.163048 0.348293 0)
(0.126686 0.36948 0)
(0.0867824 0.385807 0)
(0.0444177 0.396526 0)
(0.000856961 0.401188 0)
(-0.0425145 0.399704 0)
(0.222452 0.338603 0)
(0.189226 0.363891 0)
(0.152112 0.385534 0)
(0.1119 0.402759 0)
(0.0693419 0.415036 0)
(0.0253056 0.421999 0)
(-0.01926 0.423467 0)
(-0.0633379 0.419472 0)
(0.209799 0.381808 0)
(0.171359 0.402418 0)
(0.130634 0.418923 0)
(0.0881609 0.431045 0)
(0.0444718 0.438595 0)
(0.000140482 0.441453 0)
(-0.0442294 0.439577 0)
(-0.0880243 0.433018 0)
(0.199958 0.403455 0)
(0.15945 0.421112 0)
(0.117406 0.434713 0)
(0.074231 0.444127 0)
(0.0303415 0.449265 0)
(-0.0138403 0.450075 0)
(-0.0578887 0.446552 0)
(-0.10138 0.438727 0)
)
;

boundaryField
{
    walls
    {
        type            fixedValue;
        value           uniform (0 0 0);
    }
    cylinder
    {
        type            solidBodyMotionDisplacement;
        value           nonuniform List<vector> 
34
(
(0.438727 0.10138 0)
(0.438727 0.10138 0)
(0.426678 0.143894 0)
(0.426678 0.143894 0)
(0.410519 0.185023 0)
(0.410519 0.185023 0)
(0.390407 0.22437 0)
(0.390407 0.22437 0)
(0.366535 0.261556 0)
(0.366535 0.261556 0)
(0.339133 0.296223 0)
(0.339133 0.296223 0)
(0.308465 0.328038 0)
(0.308465 0.328038 0)
(0.274826 0.356693 0)
(0.274826 0.356693 0)
(0.238541 0.381913 0)
(0.238541 0.381913 0)
(0.199958 0.403455 0)
(0.199958 0.403455 0)
(0.15945 0.421112 0)
(0.15945 0.421112 0)
(0.117406 0.434713 0)
(0.117406 0.434713 0)
(0.074231 0.444127 0)
(0.074231 0.444127 0)
(0.0303415 0.449265 0)
(0.0303415 0.449265 0)
(-0.0138403 0.450075 0)
(-0.0138403 0.450075 0)
(-0.0578887 0.446552 0)
(-0.0578887 0.446552 0)
(-0.10138 0.438727 0)
(-0.10138 0.438727 0)
)
;
        solidBodyMotionFunction oscillatingRotatingMotion;
        oscillatingRotatingMotionCoeffs
        {
            origin          ( 0 0 0 );
            axis            ( 0 0 1 );
            omega           1.5;
            amplitude       ( 0 0 30 );
        }
    }
    outlet
    {
        type            fixedValue;
        value           uniform (0 0 0);
    }
    inlet
    {
        type            fixedValue;
        value           nonuniform List<vector> 0();
    }
    frontAndBack
    {
        type            empty;
    }
    procBoundary1to0
    {
        type            processor;
    }
    procBoundary1to3
    {
        type            processor;
    }
}


// ************************************************************************* //
