/*--------------------------------*- C++ -*----------------------------------*\
| =========                 |                                                 |
| \\      /  F ield         | OpenFOAM: The Open Source CFD Toolbox           |
|  \\    /   O peration     | Version:  2412                                  |
|   \\  /    A nd           | Website:  www.openfoam.com                      |
|    \\/     M anipulation  |                                                 |
\*---------------------------------------------------------------------------*/
FoamFile
{
    version     2.0;
    format      ascii;
    arch        "LSB;label=32;scalar=64";
    class       volVectorField;
    location    "87.5";
    object      U;
}
// * * * * * * * * * * * * * * * * * * * * * * * * * * * * * * * * * * * * * //

dimensions      [0 1 -1 0 0 0 0];

internalField   nonuniform List<vector> 
808
(
(0.7562720336415329 -0.01752465680811761 0)
(1.031322275358763 -0.01250737351489109 0)
(1.114848184894031 -0.0001354292548498588 -1.749953432053268e-20)
(1.085130922271804 0.0125705823027738 0)
(1.360463501620355 0.01363833586729115 -3.833342349759419e-19)
(1.038669895592749 -0.009414354464540916 -7.268362680931316e-20)
(1.014259263495578 -0.02033741080948983 -2.40107107915274e-20)
(1.078841290611902 -0.0047499884337823 9.003397371838938e-21)
(1.252165667672909 -0.0213700224161406 6.277282318960289e-20)
(1.084883830166372 0.008773331624505994 0)
(1.009706434037493 -0.0124220949086032 0)
(1.303307943263616 -0.05396086660335511 -3.476881561144064e-19)
(1.08623290520603 -0.00165519857871453 2.041557665756975e-20)
(0.6750920281027663 0.006391713062833751 0)
(1.278989765225092 -0.1230919344088975 0)
(1.081920694247556 -0.0001636960774068784 -3.855373462256943e-20)
(1.228652586825327 -0.1531578172091795 -9.851943753090472e-20)
(1.074412482734119 -0.0003113882945768625 3.195227302650973e-20)
(0.9898619111068351 0.006189890798052199 0)
(1.026979664045234 0.009228667686171685 0)
(1.037848578857092 -0.01592546157059075 0)
(0.9875698666707895 0.04537024268927872 0)
(1.051035423189475 -0.006217895269025222 5.745958677384461e-20)
(1.053713722036326 0.008223529069065854 0)
(0.9338471252853211 0.1999137928982059 4.571263725435781e-19)
(1.161693555185024 -0.09081244505054038 0)
(1.184312462690195 -0.0198128735536161 1.547209668060438e-19)
(1.077168807503499 0.009594751050437523 5.235670572165311e-20)
(1.084043262280162 0.00182442969091769 5.118508436699312e-21)
(1.0719652394559 0.03098160900223049 0)
(1.075465164673509 0.002553259300184784 -1.183168137916981e-20)
(1.033446188827763 0.006283123520857902 -1.887264645592179e-19)
(1.059984062003437 0.01461110945238158 -2.368982868805169e-20)
(1.088780786467755 0.005347711653057773 -2.936350142164683e-20)
(1.120835203406833 0.03632832864941204 0)
(0.7548877853811332 -0.1199917161972801 -4.549883806743942e-19)
(0.9544669955362899 -0.005734203706809869 0)
(1.068909297234007 0.02239977530165858 0)
(1.068831004416152 0.007223190179866201 0)
(1.073723702234038 0.008638676798860762 -2.814976771458748e-20)
(1.092918746643566 0.02257980383573757 1.082335052935553e-19)
(1.14975451189802 0.001991856912743486 2.122764024935624e-19)
(1.095561802910775 -0.002429602350052495 0)
(1.01546466990626 -0.009398816033002284 0)
(1.127249660129902 -0.09675449300882409 -1.65638711045332e-19)
(1.044057109332428 -0.01180306294852622 -8.280630105969857e-20)
(1.058371241260618 0.02669140938791662 -2.71749812545869e-20)
(1.229061300390208 -0.1120909072883011 -5.581429412681058e-20)
(1.067628681222733 0.01217123406105475 -4.103429651960014e-20)
(1.255576337969644 0.01525960834900807 0)
(0.9972990495769425 -0.01837660628163617 2.153128531377993e-21)
(1.044633124007405 -0.002579523201371435 0)
(1.087293298416904 -0.002343019259443205 0)
(0.997696281642814 0.007798187960472 -1.918218412865691e-20)
(1.252747129546324 0.03274430434524006 -2.376975635184354e-19)
(1.06366980011537 0.01835087244577301 5.919536700619778e-20)
(0.9883107868765381 0.01042608630009656 0)
(1.014800900277586 -0.009861432660385782 2.566674372714202e-20)
(1.106933569582929 -0.001701131820630121 -1.16117154136274e-19)
(1.061670384657559 0.03130589246473916 0)
(-0.06985476308894187 -0.02797960513879726 7.473823137828162e-20)
(1.153593606222714 -0.0522390282270179 -1.857648362418104e-19)
(1.001813060057867 -0.007534000814315059 -2.820481078249497e-20)
(1.18592503180521 0.06422395079805764 -1.200394130168392e-19)
(0.9973188112066773 -0.01063812828062513 3.079389060703743e-20)
(1.083844184712752 -0.005505923272093251 0)
(1.244885796427985 0.09152677666715257 0)
(0.6960396360883234 0.003167349004742655 -7.445970586131933e-20)
(0.9891048217940854 -0.01600762489562257 -3.207501217257378e-20)
(1.456441897628592 -0.0190393337467742 4.415144102928917e-19)
(1.060673081905917 0.007567348873193719 -6.584760535150367e-20)
(1.364199710149874 0.09441590090745887 2.861269718367826e-19)
(1.054850260058012 0.006730019744141728 -1.891204025916922e-22)
(1.080999884932593 -0.0141563394219192 -3.671107588878785e-22)
(1.162561261481112 -0.2348781303066762 0)
(1.022677838900892 -0.01477269964637256 0)
(1.017954162066634 0.01787293835011227 -3.020862140929281e-20)
(1.38973289070182 0.349880510730389 4.224738426433812e-19)
(1.09724880380273 -0.04212099730880778 9.498229574340884e-20)
(1.046862793012616 0.211270691090582 2.425187174727416e-19)
(1.122848853868862 -0.06315609236911093 1.174948112224604e-19)
(0.9221158522792811 0.005200590824797327 0)
(0.9754783078633371 0.0185855712701656 0)
(1.003983528945868 -0.0484681927456935 3.103973156243055e-21)
(1.010692817276315 -0.01363464062952587 7.676250560096161e-21)
(1.031268687978077 0.02612316186498621 1.361029326320599e-20)
(1.525252438157942 0.03475887711620959 3.227525297415451e-19)
(1.29188210235918 0.07033554449383286 5.602761602392803e-19)
(1.072719753717051 0.002928611383854325 -8.886851700504661e-20)
(1.195683708115072 -0.09943928986934628 0)
(1.033979218736092 0.001504487004305711 1.297467122298173e-19)
(1.163845808178447 0.02012171845769889 -3.13765004647276e-19)
(1.001525571966301 0.03252700172928676 0)
(0.9996299977252154 0.001975680601509858 0)
(1.044153374446391 -0.0003500702955639166 7.933204446464081e-20)
(1.214595810945609 0.1012655688337114 3.992327069134731e-19)
(1.011148886714315 0.006940863137598794 0)
(1.087509220286483 -0.07040399907295358 -1.067626160529337e-19)
(1.150156141987043 0.03491593728729233 0)
(1.212196705616857 0.08884105768943315 -1.878726136966864e-19)
(1.108217922610057 -0.02872401114192001 -7.757648350966431e-20)
(1.028012435879221 0.01172028689179672 0)
(1.085463708259561 -0.004645039318870734 0)
(1.020248844131258 0.02600892348469248 7.889809951008707e-20)
(1.075571348749328 0.05473288430732869 -9.228873715954298e-21)
(1.103622371583792 -0.004376585683488175 6.388445863430746e-20)
(1.103881462334611 -0.09493287253360189 1.538263778806961e-19)
(0.9605037106217587 -0.003131612880632119 0)
(1.066449945787785 0.03146159448882944 3.719205496832915e-20)
(1.16731932069319 -0.07648584950896754 2.270198999165572e-19)
(1.054043363818078 0.04593757248723401 -2.859852039544781e-20)
(1.02301256950686 0.06811600027760879 3.660726127708975e-20)
(1.09058175096077 0.02624926516660066 0)
(1.013417198693022 0.01416639477817581 0)
(1.028967686757086 0.009396570653973316 7.863188300237657e-20)
(0.9485892907450668 -0.03209908489017116 0)
(1.05331977069197 -0.005518248737698076 -7.489004486668535e-21)
(1.338745744929301 0.05679287094947586 -1.553413033618184e-19)
(1.079689726435951 -0.01331858422322129 2.632198773574657e-20)
(0.7442079017321398 -0.001780460240138134 0)
(0.5450001155386522 0.1622381208215993 -9.885332542771711e-20)
(0.7058435836906547 -0.002494969070656652 0)
(0.6990880098525475 0.01467248778085338 0)
(1.077839726827128 0.003471279874618901 -6.504053107433221e-22)
(0.9906410847278192 0.01443431054645587 0)
(1.281230295439276 0.1223734185272589 2.53857500393243e-19)
(1.012221913517693 -0.02797389693429905 -7.45384543260669e-21)
(1.039156277360598 0.01786390933890771 1.209328943130103e-21)
(1.058399100589407 -0.0123995523538978 0)
(1.126359329741403 -0.009250250538017271 -5.092075136572423e-20)
(1.260715069632339 0.123102201478669 -2.166746729826136e-19)
(1.088785441271213 -0.01091666280338591 -8.565330143869753e-20)
(1.070980389624941 0.02511356724402381 -1.072790251508384e-19)
(1.041098086373525 0.04677608980762977 7.322465935803531e-20)
(1.022344258525113 -0.003534392726736072 -3.469506694873886e-20)
(1.061361324578178 0.02368984447705041 5.768341826529787e-21)
(1.137771832498328 -0.0003311814569518302 1.039740302691493e-20)
(1.040863028708572 -0.0125079591082388 -4.668744973433569e-22)
(1.087688513996947 0.03481812667673265 0)
(1.028767413243484 0.01340437370535062 0)
(0.7914956090981913 -0.07601713600764774 -1.845742013162334e-19)
(1.030291573460945 -0.002133331583802285 -6.593525522496739e-20)
(1.13738095833744 0.00244242193898712 -1.278058908795629e-20)
(0.7035446356677859 0.00654509888758366 7.180745758327692e-20)
(1.176189800064286 0.01881064033989052 -1.958826542194283e-19)
(1.129655891727434 -0.00348515412747747 5.673576007768638e-21)
(1.129054186123422 -0.01010780258046347 3.380870409435906e-20)
(1.000936489923643 -0.002989567691679936 -6.824975792478761e-20)
(1.094850418791375 -0.05870308401135998 0)
(0.9877375923591984 0.000487660186746419 0)
(1.057970473602477 0.007038839943768187 0)
(1.006252050453825 0.1898091149052476 -2.377356543704063e-19)
(0.779508942494387 0.01242973817627131 0)
(0.8570348742624336 0.1036255808117141 -8.23719264497342e-20)
(0.1048977390520105 0.03379761251637544 -3.033580513767655e-19)
(1.172901329588484 -0.03253668343324017 -2.27683262461897e-20)
(0.6712388161653321 -0.007371393396396167 2.44556181051654e-20)
(1.162849824323978 -0.1056732704472962 7.00860212474119e-20)
(1.129145967113255 4.997571675012389e-05 -5.973676208112265e-21)
(1.154483471523078 -0.05106495117993857 2.212522058053737e-20)
(0.07386074924322983 -0.1892811435790528 0)
(0.2624155383185892 0.06662078842872131 0)
(1.255402675905986 0.1045753372893658 1.851957878272584e-19)
(1.021541828970776 0.01988514970975146 0)
(0.737552018060711 -0.006312896263486387 0)
(1.074817072140392 -0.01166561218277518 2.727182705147575e-20)
(0.9752142755250061 0.002868123812218215 0)
(1.288670438078266 0.119504821505922 -1.442291470390368e-19)
(1.057383206254966 0.01107964839281853 0)
(0.9923592885337115 -0.008076988673853914 0)
(1.065334356115739 0.008051192089712297 0)
(1.006252013009117 0.0209035194133629 2.110811324123264e-20)
(0.9238454844456407 0.003383875462045274 1.237248218817317e-20)
(1.175028795001743 -0.1988709172282135 0)
(1.004975287000685 -0.005229277623407411 7.961287979839803e-20)
(1.059238021346882 0.006152112034908535 0)
(0.7745388737272373 -0.00335104297893317 0)
(1.215948249205537 0.02590205356861302 1.624002700052e-20)
(0.7051318874711785 0.00134209344565443 0)
(1.431186299225169 0.08559430888452586 -5.153317241853762e-20)
(0.9936746927441971 -0.005707141631461192 1.672099615085909e-20)
(1.275839495252134 -0.004087314734194788 -2.988936837138361e-19)
(1.060045047629755 0.008846538645799274 1.337225746963738e-19)
(1.00089834326228 -0.01356723208176121 0)
(1.212983954701396 -0.1539164042783187 2.039686021650196e-19)
(0.7331665746158482 0.01378889704477924 0)
(1.09798497007678 -0.005026570758814073 0)
(1.15501756314736 0.06406351385286078 1.915423804364341e-20)
(1.006350733887571 -0.007121147994049385 -3.053905222727962e-20)
(1.122322812102676 0.0494839710692806 -1.71485619105953e-19)
(0.1578686412620884 -0.09037723572214558 0)
(1.073962561116842 0.03726366502106678 0)
(0.6615118557489513 -0.002880282904520864 -5.476593405496207e-22)
(1.012063843375131 -0.01973369554910952 9.125181424175625e-20)
(1.061811101424282 0.000771245035540765 0)
(1.087305011625405 -0.1396027077630118 3.796793391567534e-19)
(1.002477855592311 -0.006150486256251507 -3.352972217822495e-21)
(1.002169690870317 -0.003997039130490277 1.33095137209059e-21)
(1.094039045204662 -0.009185859914618804 0)
(1.020804595409892 0.02014703157911575 -6.5707949865384e-20)
(1.106822472618675 -0.00167213463932355 6.38100910623616e-22)
(1.073885767722751 -0.0106540766036994 6.60324758975368e-20)
(1.08566384949433 0.02226809877462978 0)
(1.324357940842259 0.1588750853581208 0)
(1.0020876234108 0.0005226080292817039 4.410160468759969e-20)
(1.322650476647302 -0.1329392029549238 1.58889113905559e-19)
(0.01334496271339937 -0.137143665101303 -2.369554204429399e-19)
(1.071193306535807 -0.005480618547433432 0)
(1.114009133545453 -0.0002629655814438503 1.193175309269668e-20)
(0.7269102850015196 0.01784647875037103 0)
(1.059327410515742 0.005855486866941505 0)
(0.8632813595626954 0.163003468335208 4.657709094255825e-19)
(1.279391412243981 0.1175307497472841 1.824546654843021e-19)
(0.6541102908630096 -0.003115701734870359 -6.458127835941933e-20)
(1.041329897203797 -0.0003810930735290247 -2.519019349150213e-21)
(1.054956369603706 -0.0002343671017486104 6.47931602652333e-20)
(1.359245553196139 0.1192090350213811 6.608706427727854e-19)
(1.338111461831496 0.252718177413829 0)
(1.057211516105146 0.008121719756048206 0)
(0.9955907444607962 -0.005333757304044145 1.419869055814284e-20)
(0.9945565743862727 -0.005825521903779093 1.37257429768016e-21)
(1.386124079253367 0.1998740926392683 4.315593381779456e-19)
(0.6817399219335114 0.0006260662476759986 9.92921313297128e-20)
(1.005694947707927 -0.002083224549714545 -6.005694362136359e-20)
(1.097989712933057 0.01311054490500521 2.551285091853742e-20)
(0.6694605430920126 0.004981718914566609 0)
(1.066081348031759 -0.01203405375940775 0)
(0.9920423407234921 0.1245015361781779 -1.311855988883463e-19)
(1.082299707101332 0.00518590128863603 -2.544245208868079e-20)
(0.981898900061376 9.471838672121339e-06 3.306203310778732e-20)
(0.9912110744186747 0.00599171284703741 0)
(0.6381806993875343 -0.001151912207620748 0)
(0.9768239027004871 -0.001305717915134283 0)
(0.6419519281872401 -0.001446584678525733 2.688078192597441e-21)
(1.087076095688051 -0.05719468147905474 1.215017810141569e-19)
(1.109542883345435 -0.003898639890916326 1.189961472139802e-21)
(0.9580831069238934 -0.0008916757444643439 3.891003400166815e-20)
(1.016453245642244 0.01080253333696124 1.693690324895447e-20)
(1.063842290509222 0.01042166201241532 -2.17693749448335e-21)
(0.6348283114075187 0.008848681253311189 -3.625810571096267e-20)
(1.003125145793403 0.01280536927120419 -6.717176032132354e-22)
(1.036669224685239 0.01210888567834626 5.046000632447069e-21)
(0.9871687885702884 -0.004272474617918177 0)
(0.6100769604864055 -0.0004563884970759276 0)
(1.068926509920545 0.02267977949104398 0)
(1.015699978905618 -0.01609845543071366 1.048915169612113e-20)
(1.021765946300119 -0.001970636592999782 0)
(0.9929444688789038 0.01478718417754564 -9.431067401403587e-21)
(1.011211234783173 0.006885365858977074 0)
(1.131916664789006 -0.003493923759732139 -1.243145852764682e-20)
(0.0315958900202844 -0.1377851717676316 -4.401078779574295e-20)
(1.035252915759022 -0.0159794156080687 -7.156109400481486e-22)
(1.045775920634541 0.0093289563849666 0)
(1.087792162492327 0.06732386063796562 8.381201521724124e-20)
(0.9690967260051111 -0.0007692305477367059 3.114269329518894e-20)
(1.020367513418545 0.01710926502976808 -2.264044671365486e-20)
(1.006799131953364 0.0005231952382071337 2.428586474900275e-20)
(1.040135056202627 -0.005607921926318741 0)
(0.6409816203131539 -0.004051028586562127 0)
(1.026017370246648 0.02447592793609513 -7.828072879015247e-20)
(1.081397499480909 0.005499960836929878 5.007290268412714e-20)
(1.011978506665678 0.004298671097876869 0)
(0.9817975052504057 -0.001354811926349127 -1.904132031009697e-21)
(0.8646625033637377 0.01930460853673471 -1.44827910591177e-20)
(1.013950162513519 0.003035134327796658 -9.766084993908205e-21)
(1.025795722422213 -0.001232298341380941 1.793950281509338e-20)
(0.978432133440804 -0.001542820887492648 0)
(1.006751833466651 0.008665717149172419 3.24713740129241e-20)
(1.107586306415599 -0.004837185114660132 0)
(0.9330207288847945 0.006387741011216347 -3.380995620571881e-20)
(0.9567630518735285 0.006082870223087799 0)
(0.9043971436867414 0.2052208026630569 5.040412969178996e-20)
(1.011188667948686 0.06757071530331067 0)
(0.9909356147640477 0.003969861416085132 -2.31656638593846e-20)
(1.05364694733598 -0.04991463778423887 -2.734187548472993e-20)
(0.992828890256132 -0.001321800725402859 3.328465584977996e-20)
(1.008345930572786 0.002581074458553149 0)
(0.9803971596851339 -0.0005156870301224346 -3.097533260197628e-20)
(1.176509030356979 0.09520142925348024 -3.308178039877507e-19)
(1.067635616995263 -0.2630801710734014 0)
(0.9949527956841776 0.001642328649293287 -2.225951593269852e-20)
(0.9797892696621154 0.00889992593838994 4.790108496798527e-21)
(0.9578582801524321 -0.001475598789791306 1.062757230246685e-21)
(0.7460362192643312 -0.001096649342221204 0)
(1.113078033235104 -0.07208735467585428 0)
(1.007500053916882 -0.0002849251607685005 -2.166399042983569e-20)
(0.9003256485665061 -0.001550448109510069 -1.060750933442424e-20)
(0.8454972104592855 0.009556141373993582 5.791294670192077e-21)
(1.010086450088613 0.002815726133347921 0)
(0.956785195541366 0.006626537262578753 1.574907506317469e-20)
(1.005804901304854 -0.0002031466708808716 -2.254036683060331e-20)
(1.024785834075579 0.001873720897921406 -2.512502274529872e-20)
(1.111647779629213 -0.006168737504551347 -4.879190812356335e-21)
(1.114162696118342 -0.005040806092015443 0)
(1.010279074662864 0.005169254786165957 0)
(1.025511775053472 -0.0008529500381923925 0)
(0.9503509841045746 0.01071238113815274 -2.10672382996539e-20)
(1.017884809726063 0.01314905317393394 5.564134279031318e-20)
(1.083200725044338 0.005628784055659248 -2.311552051837017e-20)
(1.036782202687162 0.005988754960278413 0)
(1.107820212543866 -0.00517833348227203 1.805034795946195e-21)
(0.9957508839407483 0.001101842196072772 -2.227832249443959e-20)
(0.9802531707635196 0.001885724321136999 0)
(1.010899484350984 0.001872066729395609 4.707091939030981e-20)
(1.362185183393687 -0.3135020490155586 -1.120945307784646e-18)
(1.121142841953147 -0.04592799966413903 -1.106457218303668e-19)
(0.9759329896458502 0.01148818170545624 4.738974600071796e-20)
(0.7798538655163179 0.02353888249281909 -3.587299651069828e-20)
(1.22140617156996 0.04881551309661945 0)
(1.214057620965484 -0.1360780427617999 -1.476619588484509e-19)
(1.084170020052321 0.00165292200469526 0)
(1.009545802542135 0.001117237134670573 2.250147328071106e-20)
(-0.1846553645917075 -0.06919178061776408 0)
(0.9939717381784311 -0.004674568084363235 0)
(1.012342251947706 -0.02307183871471186 3.977818620916428e-20)
(0.7061761354876316 -0.01941114960533583 0)
(1.096799463139907 -0.01504374156519961 2.334233361368826e-21)
(1.039858294300856 0.002214736803349827 1.393074988472384e-20)
(0.6331366372046222 0.00417930201863505 0)
(1.444814456940739 -0.1233618205119372 0)
(0.9862821312805584 0.002163453737907001 -1.065926588864322e-20)
(1.069609477072808 -0.01497822191857972 0)
(1.038047408674422 0.0005777126872947094 2.076528720249139e-20)
(1.087733294811071 -0.003579595367146446 0)
(1.009735511015333 -0.003810956084554218 -1.236817542014246e-21)
(1.006244172804373 0.003209481414764617 0)
(1.012037476211989 -0.005060627894104469 -7.842709794962457e-22)
(1.003473005513502 -0.02004834473472129 0)
(1.034288290452515 -0.001200578977374625 1.858637673477289e-20)
(-0.213580229475602 0.05312096281710738 2.774234102885323e-19)
(0.8207518436796514 0.04015110862292906 5.91923063536234e-20)
(1.005183262032264 0.002380688540746943 0)
(1.12395391998524 0.02079937206614036 -1.323139716927421e-20)
(1.110191157750299 0.01141169037841588 9.728023948361611e-21)
(1.053831624287736 -0.01298420193171014 -1.315489685837477e-19)
(0.9987753860530719 0.01039396079921374 -2.536234230537229e-23)
(1.084564410248726 -0.002143230301308504 0)
(1.186821580354054 0.0494361110866196 0)
(0.8350611025116021 -0.07365150116075675 4.607435473686597e-19)
(1.096921588402137 -0.01412003272812272 0)
(1.032869868352442 0.008026440706407376 -7.653833271698313e-21)
(1.042771732290858 0.005377689862219556 5.723912320911418e-21)
(1.050501365765823 -0.05980498125477139 -7.53238632718737e-21)
(1.140071809912832 -0.002570541894142288 1.711154675591051e-19)
(1.076709964775319 0.0009045819062468165 0)
(0.9950245773733107 0.001765728182049417 0)
(0.9979165236776578 -0.02437115787239699 -2.347058837549788e-21)
(0.9915814672219049 0.003051123256279316 0)
(1.028983128651341 -0.03702022302342394 6.478941724429426e-20)
(1.2940806649147 -0.09838683108463751 0)
(1.045265394530245 -0.01011936383972733 -1.653415178050553e-21)
(0.9861739121893522 0.01679954519395412 -8.956691086913677e-20)
(1.035395268550409 0.04243764174847642 -2.341998392466897e-21)
(-0.09036528976678435 0.1924321610929824 -1.697220245893813e-19)
(-0.06454400152279852 -0.2797562507293101 -1.356036569724988e-19)
(0.8578726091985422 0.1117289705225167 0)
(0.2787111993834568 -0.006926611070334952 -2.900343603463824e-19)
(1.013193814330051 -0.01809712124090494 -1.09529783740068e-20)
(1.064021142214111 0.002642599651790253 -2.073203272298366e-20)
(0.9934256059956919 -0.02085697412596945 2.980818839340646e-20)
(1.026015916053391 -0.02686558542004282 2.591617400937043e-21)
(1.008555934866534 -0.03047207686849482 -6.670025227556679e-20)
(0.9886964158446873 0.004916475428266192 -3.491792312565125e-20)
(0.9938644432738454 0.004365036736051708 0)
(1.024448837674264 -0.001834752102922881 -3.551985755972353e-21)
(1.93026868593337 -0.155818287528747 1.066872059105244e-18)
(1.052980510297806 -0.01916641023754517 0)
(0.9964800020406807 0.007194305430739093 1.486990937891745e-20)
(1.003146602460433 -0.0003876914894456141 4.026453549032452e-20)
(1.177997539798071 0.1449785049589372 0)
(1.007611107428098 -0.02016118061471263 -6.927660578674938e-22)
(0.9526979881695875 0.0002925673910802219 0)
(1.037850222144753 0.04171342735671375 0)
(1.29224623184968 0.1529678324438822 2.160555896614415e-19)
(1.0788433855579 -0.008451028935032658 2.362686122833431e-20)
(1.017247457111439 0.03222233227173558 4.550549531081399e-20)
(1.078333911709995 -0.00285221161129502 -2.276642985401628e-20)
(1.057515572507752 -0.01875469064872104 1.019780611808019e-21)
(-0.3856585664728312 -0.03498404577739801 0)
(0.9983941565097051 0.01296074143050487 0)
(0.1239867360734104 0.05761129632694332 -9.028942570994626e-20)
(1.005527175347633 0.02207159115839777 -4.017256506632383e-20)
(1.001048891465265 -0.01201210004188456 0)
(1.000313954989918 0.005604629039247482 -4.951890599145747e-21)
(1.081698733858087 -0.04211528471153399 0)
(0.9953582152006659 -0.01900747556919907 -7.983330260514257e-21)
(1.091873716392996 -0.04588678474992263 0)
(1.440294470074398 0.1723303895318763 0)
(1.054311137149597 -0.01166858757514951 0)
(0.9918526903113369 -0.02327408650136647 -4.008670542646385e-20)
(0.9810698061941248 -0.02221663380146017 -2.639696717014039e-21)
(1.020115625047257 -0.01948990978766455 -2.016958496080156e-20)
(0.9972434587835994 0.01727978644638776 -5.444085844679084e-20)
(0.9954384444725128 0.009419591510921206 -1.449175210049856e-20)
(0.9945541278624105 -0.02626387171753066 0)
(1.002032133992463 0.02554004681073644 1.898160662883052e-20)
(1.035280555042738 -0.02733699185629691 0)
(1.110393625083354 -0.03639364018253786 2.539407118380233e-19)
(0.9951280057955157 0.01704360174983059 4.507897248889689e-20)
(0.6150965921558811 -0.008680153276374834 0)
(1.151745457731678 0.1418799399961081 -1.732274866310992e-21)
(0.8293044280158711 -0.09456025905853871 0)
(1.139273015980711 0.07267738221601563 -2.776054301016605e-19)
(1.313099991574884 -0.3874365818767965 1.276975536719385e-19)
(1.075965262737826 0.06528682149304899 -1.314310568557992e-20)
(1.010299749634124 -0.02933630519406135 0)
(0.9547140565350387 -0.2137363805284681 0)
(0.5313308753955445 0.1625794647528009 0)
(1.012361791328771 0.01348423028955003 1.024121798143486e-21)
(0.7117194865734614 -0.01252745696359133 0)
(0.9980182424087062 0.01726260929170003 3.45859533248183e-20)
(1.022244881150461 -0.0001682226440289346 -2.697904070894991e-20)
(1.079164944627509 -0.00801645522535129 2.664366551428619e-21)
(1.046181071676927 -0.01123494602059814 2.867134835515362e-20)
(1.042932729970861 0.01087390653624655 0)
(1.053455897284613 0.02678426973279053 -9.666585712909773e-21)
(1.051660400854272 0.03493988373683674 -1.777305932172603e-20)
(0.9832137744596093 -0.02165730899865312 0)
(0.6249114372478689 0.00513817016224006 9.179112252453242e-20)
(0.894181155509269 -0.005918466879630982 -8.854310538179002e-20)
(0.9093409976792627 0.00526910605183977 1.444949616558763e-20)
(0.6296107143392183 -0.006401623269381206 1.410423402410217e-20)
(0.9791721871907427 -0.0003371735849670763 2.56566719590222e-20)
(1.004429758121136 -0.01762754197919055 -3.34021764422838e-20)
(0.9690734087137548 -0.01222381087783747 -3.087995812251862e-20)
(1.085578307875152 0.001453574449865471 0)
(1.018662457486722 0.004801095969223152 1.087502749341033e-20)
(1.133350971338836 0.04817236842556553 1.339297604831608e-19)
(1.033706211774614 0.04272809104467705 0)
(1.022189332688651 0.002632591178119015 0)
(1.580264152070467 -0.1673129837342257 4.363583328486067e-19)
(1.041220807711507 -0.0265084312794677 0)
(1.022368542258143 0.008075420736786069 -3.570691349131853e-20)
(1.087387450782715 -0.003037845967022158 0)
(0.486657357709644 -0.01464719223628173 0)
(-0.04027415016462102 0.004646470554246256 0)
(0.9901345521946942 -0.02352912077881122 1.242481728640692e-20)
(1.299190573231616 -0.09613970840571982 3.678975649758597e-19)
(1.033045179432871 0.03943580573608424 0)
(1.022641343542336 0.003396975517401561 -2.191745862103457e-20)
(0.9400104006166605 -0.1657209557426236 -2.602191095955329e-21)
(1.253088369975361 0.07354853368170793 0)
(0.5992700452454617 0.7327750553103921 0)
(1.305213072634571 0.1447491318715688 1.066558177742231e-19)
(1.673106444530666 -0.02583338432433635 0)
(1.071894099807434 0.1260454774931361 0)
(0.730985996483494 0.002147231957147416 3.08840370358891e-21)
(1.050201150660579 0.04946449420825566 0)
(0.7179932664150402 0.09929037708052706 1.281859114134142e-19)
(0.9968217805606739 -0.01627933325396255 3.585002272680195e-19)
(1.035026069948024 -0.03842572010366241 2.643766852026108e-20)
(-0.36978987874773 -0.03934307707137104 0)
(1.071641496499624 -0.0161489986924236 0)
(1.093429290177708 -0.01711708429163241 0)
(0.6470422671648455 -0.5000848197907974 -2.508052724294315e-19)
(0.9921661284953319 -0.0001136045882662143 0)
(1.091769315633838 -0.02216767600611338 6.123632259298577e-22)
(1.189336944735731 0.121021064045127 -2.037290439451937e-19)
(1.093673127656996 -0.03727357869453508 0)
(1.004973446493125 -0.02091868167306149 0)
(0.8064649325756457 -0.1963325982605804 -1.730253191165763e-19)
(0.9004102602013562 -0.1426844729840148 1.501066736224362e-19)
(1.030763893921233 0.01002699640489352 -2.087884976833271e-20)
(1.023129719711207 -0.009272343724921021 -4.323743723336436e-20)
(0.8668686144982429 -0.0006090016279860277 -2.925019575958782e-22)
(1.50202686995997 -0.193791178940481 0)
(1.30226681994358 0.1125004658046666 3.129715982311746e-20)
(1.243458941242248 -0.07965134149424867 -3.074698658674958e-21)
(1.095916166348314 -0.01878664474047187 -3.951192421827207e-20)
(1.04338976444827 -0.01731082819041038 2.883865609830847e-20)
(1.092800338141829 -0.03919297169757462 9.45577732841818e-20)
(1.032747963614816 0.01981443140107613 0)
(1.048347841902545 -0.03155193388297819 0)
(1.115851328205435 -0.009050255240686398 0)
(1.094776305720527 -0.0272645980077457 0)
(0.9980139576794431 0.01075077052014524 0)
(1.153330342766579 0.07544967072981798 9.328502125968289e-20)
(1.345677961208474 -0.1578326340096107 0)
(1.042744963565293 -0.02266585419743405 -2.199798044560493e-22)
(1.052580219016499 0.0546436707257642 0)
(1.009919416398307 0.01438149290837014 -3.837722592537335e-20)
(1.033519885716765 -0.008190824589337235 9.301843096882628e-21)
(1.088997553840617 0.01330408046455589 -3.180369615831664e-20)
(1.084291641968329 -0.02977482962496695 0)
(1.076537161523768 -0.005813741087790886 0)
(1.101866181852672 0.09308639308139165 -1.40485108803499e-18)
(0.9348692072001079 -0.1480165345529094 -7.108238585571934e-20)
(1.179209305860364 0.1072033458229344 1.112561664756017e-19)
(-0.4592608317638851 -0.01116832388541772 -2.927662700357373e-19)
(1.019443697732116 0.02947776028871903 -8.609101779164068e-20)
(1.00655869442013 -0.00609548240234623 0)
(-0.2676638987423037 0.0246985818459098 3.563022785448057e-19)
(-0.04896528596193989 0.3411636263586813 7.504255893495913e-21)
(0.9952198608688577 -0.006331299235133666 9.051512708547504e-20)
(0.1867192166483412 -0.04095999928116701 1.365340138974543e-19)
(1.096706772521972 0.08897834679056539 1.494269589178518e-20)
(0.09346470850450621 -0.1066360689865296 -5.367168318230768e-20)
(1.107930699377308 0.003161685826556753 0)
(1.09528311283581 0.2520675402325739 0)
(1.021530603796514 0.02200109291998682 -1.686209898598571e-20)
(1.069657370111311 0.06118180931650131 0)
(1.024238825166177 0.02630427381589815 -8.942527759107565e-21)
(1.260100902477409 -0.5474309360439458 7.986934756894381e-19)
(-0.08274526382701058 -0.2138293240498688 2.114410842058476e-19)
(1.295856821293653 0.1122895033288137 -6.150619950416824e-19)
(1.124880954850322 0.0004494203225288309 0)
(1.13524230845671 0.1026316937875089 0)
(0.5222307730877892 0.07880531178225599 2.469825932606565e-19)
(1.022899861395244 -0.02101497483031932 9.526856229038586e-20)
(1.00528030796544 -0.02357322199092857 0)
(1.213363473859264 0.2716817370681628 -9.792809197607189e-20)
(1.250058020100131 0.1306131190966691 -1.522450279089862e-19)
(1.026512031296806 0.002663699173480776 1.578565220394147e-20)
(1.296046238101823 -0.08479891798327198 -4.963245723821141e-19)
(0.3064310443090426 -0.02109545314075127 2.768987000981572e-19)
(0.834081415824942 -0.1495249397171614 6.85103229024116e-19)
(1.057992757224913 0.07112134279909793 1.08100481102394e-19)
(1.04087985129001 -0.006239072161647156 1.294973563360402e-21)
(1.000920279033899 0.01996234097797805 2.873171493990848e-20)