/*--------------------------------*- C++ -*----------------------------------*\
| =========                 |                                                 |
| \\      /  F ield         | OpenFOAM: The Open Source CFD Toolbox           |
|  \\    /   O peration     | Version:  2412                                  |
|   \\  /    A nd           | Website:  www.openfoam.com                      |
|    \\/     M anipulation  |                                                 |
\*---------------------------------------------------------------------------*/
FoamFile
{
    version     2.0;
    format      ascii;
    arch        "LSB;label=32;scalar=64";
    class       volScalarField;
    location    "16.5";
    object      yPlus;
}
// * * * * * * * * * * * * * * * * * * * * * * * * * * * * * * * * * * * * * //

dimensions      [0 0 0 0 0 0 0];

internalField   uniform 0;

boundaryField
{
    FrontBack
    {
        type            empty;
    }
    Top
    {
        type            calculated;
        value           nonuniform List<scalar> 
15
(
142.2493087447701
133.5588926085628
138.0411568831395
144.3976254477504
159.7688204840806
131.3682322925764
140.0939238284434
135.3273170169654
153.4046005779006
135.8015286200993
136.2481561591751
136.7662592665514
125.2269643104687
133.3009761897236
124.7468160175921
)
;
    }
    In
    {
        type            calculated;
        value           uniform 0;
    }
    Bottom
    {
        type            calculated;
        value           nonuniform List<scalar> 
15
(
155.5650214589861
158.0192440874645
141.0826102056937
142.0473725755259
141.1492912169166
148.4275137128608
142.6605130580772
143.139842152836
143.3466810145391
133.9795164038669
125.7486370133565
141.5509321025226
122.3531299365154
123.7457226095512
124.0850854002796
)
;
    }
    Out
    {
        type            calculated;
        value           uniform 0;
    }
    circle
    {
        type            calculated;
        value           nonuniform List<scalar> 
32
(
56.38084645132135
22.3112492032002
65.33117616820368
23.66848985674969
19.25042867057412
56.1764110301483
56.8272261650548
24.12189299904047
22.34517751046533
65.54895332763495
40.20298916745335
63.06305869239459
50.34547683113151
13.52510020735744
23.94846768866168
18.81268990809945
38.93697496592123
59.61950290760905
61.00997629086354
24.8966738099208
65.72500508828138
63.8286960053606
62.96763412751524
59.92926819032849
64.10190234931368
45.95723925141453
66.37005725118256
32.07576680737937
38.01189995106051
55.75794885005192
21.08483567722744
43.15867254981993
)
;
    }
}


// ************************************************************************* //
