/*--------------------------------*- C++ -*----------------------------------*\
| =========                 |                                                 |
| \\      /  F ield         | OpenFOAM: The Open Source CFD Toolbox           |
|  \\    /   O peration     | Version:  2412                                  |
|   \\  /    A nd           | Website:  www.openfoam.com                      |
|    \\/     M anipulation  |                                                 |
\*---------------------------------------------------------------------------*/
FoamFile
{
    version     2.0;
    format      ascii;
    arch        "LSB;label=32;scalar=64";
    class       volScalarField;
    location    "21";
    object      p;
}
// * * * * * * * * * * * * * * * * * * * * * * * * * * * * * * * * * * * * * //

dimensions      [0 2 -2 0 0 0 0];

internalField   nonuniform List<scalar> 
808
(
0.117203
0.0146132
0.0434529
0.1173
-0.20412
0.0129915
-0.00107701
0.027577
-0.114411
-0.0304434
0.03529
-0.126842
0.0247843
0.00922861
-0.226606
0.0201815
-0.230517
0.0139375
0.0343493
0.0027612
0.0437911
0.392167
0.0784972
-0.0055621
0.469453
-0.152202
-0.0519514
0.00390168
0.0115722
0.0148847
0.00797367
0.0140523
0.0216261
0.00453791
-0.0899656
0.637913
0.0138141
0.0198836
0.0191862
0.0189088
-0.0603123
-0.0547435
0.039192
0.0229854
-0.162095
0.0958344
0.0181203
0.0201598
0.0148528
-0.15516
0.00138469
0.0140076
0.0493939
0.00368872
-0.0732776
0.0117176
0.00817179
0.0421115
-0.022813
0.00475576
-0.266872
0.00926208
0.0369888
-0.189755
0.0302893
0.0502678
-0.261104
0.022479
0.0267716
-0.252245
0.0226198
-0.280347
0.0208274
0.0180844
0.195976
0.0154322
-0.0142413
-0.0516946
0.00678166
0.327301
-0.107007
0.016092
0.0330843
0.279838
0.0185008
-0.0327705
-0.323233
-0.0925919
0.0247641
-0.16546
0.0355266
-0.0990143
0.265869
0.167671
0.046168
-0.283437
0.0220087
-0.106746
-0.109691
-0.245078
0.0110807
-0.00467434
0.0365505
-0.0277616
-0.126806
0.064176
-0.172912
0.00314681
0.00887168
0.0387977
-0.0787797
0.34676
0.0168773
0.0204266
0.0201823
0.463141
0.00950543
-0.238219
0.0191221
0.0537432
-0.314363
0.0384955
0.0111886
0.0551177
0.12177
-0.0373033
0.107504
0.0516218
0.0289734
0.0732485
-0.278932
0.0272946
-0.0574089
0.137327
0.0234312
0.00770225
0.0195578
-0.00175353
0.0179827
0.00401568
-0.263532
0.0458615
0.0410815
0.0202326
-0.0165198
0.0073443
0.0945397
0.158238
-0.145523
-0.00350275
0.0182438
0.357573
0.0266512
0.548675
-0.25581
-0.0833767
0.0148043
-0.178174
0.0249957
-0.102758
-0.270274
-0.263118
-0.270811
0.0157538
0.0659668
0.0231752
0.0182324
-0.274334
0.0142665
0.0355871
0.0363736
0.170058
0.00242081
0.132113
0.0158609
0.0688573
0.076742
-0.147191
0.0225757
-0.303763
0.0327091
-0.123437
0.0131852
0.269864
-0.208776
0.12432
0.0237336
-0.165117
0.029046
-0.113071
-0.248572
-0.0816514
0.0194775
0.0818391
0.0130325
-0.245549
0.0177079
0.0320487
0.00789312
0.0891161
0.0634932
0.029253
0.0223612
-0.27381
0.387941
-0.25008
-0.269111
0.0089005
0.0501385
0.0180877
0.0135804
-0.349171
-0.297525
0.0155906
0.0294708
0.0177941
-0.286257
-0.0210535
0.019678
0.0369143
0.0234815
-0.0709984
0.0278047
0.0278903
0.00124398
0.0229125
0.132979
-0.316117
0.0397619
0.0094749
0.125748
0.0129021
0.0149555
0.00714837
-0.0872592
0.0426297
0.012489
0.00331036
0.0132605
0.017248
0.00733643
0.00376922
0.00339203
0.00711989
-0.00012272
0.00120315
0.000662025
0.00335486
0.000519239
0.00939481
-0.277102
0.001673
-0.00851519
-0.150404
0.00189402
0.00971197
0.0241062
0.00112986
0.0202612
0.138368
0.0182755
0.0108715
0.0142785
0.0850736
0.0296272
0.012845
0.0137544
0.0217435
0.0206185
0.0384139
0.0436975
-0.344492
0.28945
0.00987049
-0.0676276
0.0203629
0.0129808
0.0143365
-0.258119
0.286945
0.0196216
0.0570217
0.0240339
0.0839401
-0.164719
0.0163548
0.0132623
0.054224
0.0113018
0.0180141
0.0214011
0.0252882
0.0296674
0.0370316
0.0267025
0.0200423
0.0544115
0.0662328
0.00855589
0.0135059
0.017701
0.0139848
0.0388839
0.0156254
-0.46143
-0.0847723
0.0512215
0.0222915
-0.172642
-0.199082
0.00424364
0.0163035
-0.272734
0.12922
0.160581
0.0183815
0.0152881
0.0360766
0.000893807
-0.192987
0.0242835
-0.000162178
0.0241965
0.00954672
0.00999725
0.0246824
0.045952
-0.00926188
0.0125972
-0.257211
0.0243221
0.0309508
0.0828601
0.0903775
0.0131038
0.243675
0.00349524
-0.163072
0.558912
0.0783232
0.0021368
0.0240153
-0.0690457
-0.0365784
0.0548801
0.0252841
-0.0220372
0.0207078
-0.0481065
-0.22581
0.0627921
0.114849
-0.0498809
-0.2503
-0.274181
-0.297773
-0.273956
0.0664415
0.0225882
0.00909444
-0.0468594
-0.0416636
0.0045168
0.0190046
0.0020728
-0.454846
0.0798395
0.0235703
0.0284393
-0.343128
0.0709611
0.000389175
0.112553
-0.296056
0.0730916
-0.0209498
0.0774068
0.0753928
-0.26056
0.0293223
-0.279706
0.00728518
0.0621962
0.0300116
0.00943818
0.0194345
-0.152959
-0.292377
0.00305095
-0.0018494
-0.116655
0.00819087
-0.00264939
0.0239938
-0.0243183
-0.0023641
-0.203795
0.040494
0.0196758
0.0148971
-0.372748
-0.153472
0.0732606
0.0106224
-0.136843
-0.0482726
0.43472
-0.266828
0.0112721
-0.116723
0.0204046
0.0396778
0.020776
0.0112697
-0.00757807
0.0657145
-0.0671006
-0.0105166
-0.00587034
-0.00786722
-0.0131051
-0.0120388
0.0269974
0.116135
-0.0613413
0.0169363
0.00636894
0.0326348
-0.0546582
0.0270318
-0.337848
-0.108326
0.0189468
0.0140775
-0.186992
-0.29858
-0.0204643
-0.0664193
-0.0172551
0.0226825
-0.129128
-0.218826
0.253029
-0.266569
-0.406794
-0.303117
-0.0432984
-0.0626185
-0.316342
0.362116
-0.0658446
-0.268892
0.00815196
0.0619809
0.582407
0.00762988
0.013164
0.0608972
-0.0861414
-0.0105746
-0.251087
-0.244201
0.0261743
0.0628912
0.01144
-0.23055
-0.264265
-0.191549
0.0133713
0.0272348
0.10023
-0.0198447
-0.0638209
0.0865135
-0.0501488
0.0213944
-0.19475
-0.277108
-0.0393898
-0.0784687
0.0173598
0.016758
0.0784438
-0.0396086
0.00906602
-0.40966
0.462924
-0.294857
-0.260587
-0.0339219
0.00763546
-0.258107
-0.247844
0.121224
-0.286607
-0.17453
0.875217
0.0159365
-0.303506
0.00479634
-0.0743437
0.026805
-0.414978
-0.254539
-0.266668
-0.000242338
-0.253808
-0.308219
-0.00391176
-0.0175025
0.119854
-0.264089
0.0391769
-0.448888
-0.295511
-0.355822
-0.0959627
0.0164655
0.0124588
0.113967
0.130512
-0.0321319
-0.257236
0.314738
0.0374575
0.00638656
-0.383634
-0.444691
-0.282162
0.0461242
-0.298219
0.0396136
0.00409485
-0.0385141
-0.248153
-0.20088
0.0181505
-0.268406
-0.255094
0.00982813
-0.00704962
-0.145393
-0.0028315
0.0450716
-0.332468
-0.283842
-0.107232
0.112583
0.0220282
-0.283035
-0.261105
-0.344312
-0.177134
0.0519245
0.110481
0.00540678
-0.334067
-0.271566
0.114623
0.019934
-0.141253
0.033142
0.0257542
-0.303667
0.0367098
-0.236982
0.0295782
-0.239242
0.0346793
-0.00357433
-0.334933
-0.422706
0.000543516
-0.428624
-0.407875
0.0326093
-0.0416512
-0.251061
-0.00814629
-0.262539
0.0315618
0.0958436
0.0636022
-0.229238
0.0145015
0.060969
-0.415733
0.0147694
-0.272837
0.0170343
-0.283417
-0.474439
0.108642
0.291451
0.455845
0.0197281
0.00159933
-0.00130306
-0.289112
0.660757
0.0207211
-0.18144
0.022361
-0.0488158
0.0865788
0.503736
-0.340398
-0.036996
-0.0306991
0.0288433
0.0131638
-0.419175
-0.251494
-0.276861
-0.258274
-0.245605
0.00345009
-0.324407
0.0584186
-0.237255
-0.277559
0.535534
0.609703
-0.271129
0.127275
-0.254249
-0.0236645
-0.0174248
0.43125
-0.0274393
-0.274055
0.0749175
-0.472398
-0.0120088
-0.170959
0.00372784
-0.286968
-0.244212
-0.00254619
0.00309344
-0.274815
0.458872
0.692965
-0.282487
-0.269431
-0.280011
-0.0447316
-0.277478
-0.254159
-0.149009
-0.274481
0.774997
-0.312004
0.754522
-0.366917
0.340464
-0.268087
0.0117429
0.194393
-0.465804
0.235385
-0.240971
-0.282067
-0.309179
0.887774
-0.254373
0.218174
0.158455
0.655223
0.13032
-0.274826
-0.252237
-0.193074
0.013649
0.112033
0.531277
0.0136831
-0.00900935
-0.256873
0.146161
-0.10122
-0.349143
0.0323558
-0.238002
-0.136065
-0.124568
-0.317235
0.0101611
0.10805
0.000509718
0.0890061
0.117238
-0.304071
-0.322454
0.0105223
0.0240048
-0.42935
-0.476821
0.201931
0.210959
0.0919037
0.689971
-0.0601723
-0.206993
-0.350065
-0.272118
-0.0414064
0.105121
0.780699
-0.41607
0.387613
-0.00672585
-0.392953
0.169208
-0.0470013
0.397041
-0.130229
0.0224986
-0.281167
-0.0593475
0.207745
0.825431
0.345788
0.779332
-0.298056
-0.272399
-0.368156
0.189759
0.284993
0.0726367
0.402678
0.149721
0.512142
0.297502
0.0245738
-0.163249
0.0369584
-0.252037
0.898653
0.42441
0.671999
0.527441
-0.235159
-0.288692
-0.255197
-0.263615
0.0579559
-0.369859
0.117291
0.615837
-0.302794
0.0103113
-0.26427
0.201727
-0.301805
-0.3365
-0.172635
-0.257145
-0.267514
-0.279819
-0.290023
-0.134761
-0.366009
-0.111711
-0.173717
0.164455
0.665798
-0.190262
-0.269645
0.846017
-0.270061
0.299399
-0.20711
0.399173
0.092542
-0.295075
-0.363416
0.467196
-0.247544
-0.290385
0.20272
-0.244587
-0.0228123
-0.267948
-0.0900623
0.0362105
0.582783
0.794403
-0.263729
0.23705
-0.270806
0.837491
-0.0101694
-0.282611
-0.0257079
0.776107
0.223512
-0.289878
-0.253164
0.467014
-0.184574
0.0581161
0.374771
0.270195
0.307736
-0.222477
-0.273394
0.703652
)
;

boundaryField
{
    FrontBack
    {
        type            empty;
    }
    Top
    {
        type            zeroGradient;
    }
    In
    {
        type            zeroGradient;
    }
    Bottom
    {
        type            zeroGradient;
    }
    Out
    {
        type            fixedValue;
        value           uniform 0;
    }
    circle
    {
        type            zeroGradient;
    }
}


// ************************************************************************* //
