/*--------------------------------*- C++ -*----------------------------------*\
| =========                 |                                                 |
| \\      /  F ield         | OpenFOAM: The Open Source CFD Toolbox           |
|  \\    /   O peration     | Version:  2412                                  |
|   \\  /    A nd           | Website:  www.openfoam.com                      |
|    \\/     M anipulation  |                                                 |
\*---------------------------------------------------------------------------*/
FoamFile
{
    version     2.0;
    format      ascii;
    arch        "LSB;label=32;scalar=64";
    class       surfaceScalarField;
    location    "21";
    object      phi;
}
// * * * * * * * * * * * * * * * * * * * * * * * * * * * * * * * * * * * * * //

dimensions      [0 3 -1 0 0 0 0];

oriented        oriented;

internalField   nonuniform List<scalar> 
1171
(
-0.945458
0.945458
0.780031
-1.09177
0.311742
-0.291155
-0.724764
1.01592
0.0545415
-0.0649155
-0.278743
0.343658
-0.780031
0.0917742
0.688257
0.942485
-0.216554
-0.72593
0.839596
-1.05645
0.216859
-0.359344
-0.035977
0.395321
-0.00350831
0.608812
-0.605304
-0.512558
0.92586
-0.413302
-0.424259
1.01933
-0.179731
0.232194
0.0939984
-0.326192
0.982253
0.0370744
0.259548
-0.0273541
1.02143
-0.0391727
0.644371
-0.935526
-0.788315
0.610457
0.177858
0.292156
-0.804713
0.557963
-0.913966
0.356003
-1.08052
0.672343
0.408174
-0.644924
0.641416
0.0303795
-0.249128
0.218749
0.0382654
-0.631179
0.592914
0.469091
-0.505068
-0.830337
0.875463
-0.0451262
0.990518
0.030907
0.906692
-1.05998
0.153292
1.01569
-0.0251758
-0.700976
-0.0873394
1.2537
-0.843979
-0.409725
0.185357
-0.0780574
-0.415363
0.493421
-0.273131
0.186501
0.0866305
-0.607853
-0.483921
0.966834
-0.0601415
-0.0252487
0.884728
-0.859479
0.510436
0.743268
0.530755
0.0237909
0.4453
-0.793035
-0.105053
0.898088
0.582431
0.23359
-0.816021
0.0667446
0.570232
-0.636977
-0.510264
-0.570253
-0.382053
-0.677931
0.0292108
0.245725
-0.274936
-0.953412
-0.0313884
0.9848
0.377996
0.0173244
0.84107
0.101415
-0.604724
-0.0402004
0.0337004
-0.826735
0.117017
0.916183
-1.0332
-0.404338
0.0288522
0.375486
-0.712714
-0.240698
-0.71558
0.832597
0.695227
0.230633
-0.581513
0.995473
-0.8191
-0.176373
-0.111978
-0.0192913
0.131269
-0.461198
-0.04387
-0.289522
0.984749
-0.0100186
0.439992
-0.429974
-0.490609
1.07304
0.716476
-0.821529
0.399152
-0.0792006
-0.319951
0.759503
-0.759503
-0.903912
0.0389618
-0.317705
-0.698848
0.673599
-0.0316419
-0.144483
0.176125
0.894927
-0.0101993
1.04243
-0.808839
0.226125
-0.322113
0.0959877
0.974441
-0.133371
-0.675898
-0.0477309
0.723629
0.148187
-0.22997
0.081783
0.798575
-1.01513
-0.439697
0.309494
0.130203
0.673436
-0.63517
0.865409
-0.391704
-0.473705
0.483356
-0.693954
0.0352432
0.65871
0.15842
0.664145
0.0486017
-0.712747
0.134582
-0.0956199
-0.509822
0.105485
0.0357686
-0.904389
0.868621
-0.537181
-0.761302
0.0603262
0.502812
-0.0575116
0.275975
-0.833652
0.557677
0.424648
0.575352
0.597849
-0.564148
-0.389133
-0.0244808
0.413614
0.536201
0.223302
-0.659188
0.725933
0.0874486
0.890349
0.0046007
-0.680499
-0.765213
0.800981
0.616414
0.100126
0.364863
-0.464989
-0.154392
0.52641
0.0438218
0.869079
-0.737294
-0.131784
0.657888
0.337585
-0.431987
0.693179
-0.593053
0.409318
0.148646
-0.0548261
-0.738914
-0.173034
0.911948
-0.122855
-0.636648
-0.612837
0.361859
0.250978
0.660322
-0.655722
0.312017
1.02466
0.0177695
-0.765213
-0.143674
0.0316957
0.716476
0.785062
-0.785062
0.844063
-0.830153
-0.0139105
-0.453826
0.878474
-0.192177
-0.317645
0.76465
-0.670486
-0.0941636
-0.864983
0.126069
0.109336
-0.71406
0.821529
-0.975921
-0.190524
0.193394
-0.00287051
0.116818
-0.997094
0.880277
0.549942
-0.0191873
-0.288737
0.594515
-0.305778
-0.654165
0.770983
-0.158777
0.67392
-0.89945
0.225529
1.1609
-0.712585
-0.448312
0.730236
-0.0700413
0.00130325
-0.000855081
-0.00044817
-0.801502
-0.923506
0.198741
-0.698848
0.57403
-0.545177
0.120241
0.677817
-0.798058
0.779123
0.166335
0.490657
0.509343
-0.0315426
-0.69483
0.726373
0.875906
-0.00682756
-0.730236
0.800981
0.18136
-0.430488
-0.032882
0.0192647
0.0136172
0.670858
-0.430217
-0.240642
0.688257
-0.0440632
-0.249585
0.561033
0.109826
-0.0185682
0.000750221
0.017818
0.00603688
-0.00473363
0.130983
-0.210184
-0.943839
0.0275652
-0.142858
-0.0595404
0.125321
0.783519
0.7417
-0.166348
0.554857
-0.434616
-0.162492
0.388617
0.636396
0.0518613
0.229581
-1.05973
-0.975921
0.320485
0.673599
-0.160738
0.0162546
-0.811084
1.02125
-0.210167
0.479673
-0.104187
0.79858
0.306046
0.243587
0.0159602
-0.680823
0.680823
0.224877
0.673211
-0.0194122
0.459405
0.474009
-0.00134981
-0.0315322
0.544451
0.00549134
-0.654165
0.571922
0.192728
-0.00121683
0.000361746
-0.636396
0.176178
0.845073
0.030722
-0.720878
0.690156
0.760275
-0.821173
0.0608979
-0.779123
-0.0317257
0.0450042
-0.0132785
0.0860339
-0.120796
-0.103042
0.223838
-0.0068321
-0.0117361
0.770365
-0.739643
0.900087
0.115833
-0.383482
-0.519534
0.903016
-0.00184206
0.00184206
0.168913
0.433644
0.58914
-1.02278
-0.199893
-0.551456
0.751349
-0.0207481
0.196873
0.380632
-0.232445
1.01459
-0.580941
0.774582
0.960652
-0.371512
0.188455
0.770983
0.591252
0.239455
0.636008
-0.636648
0.319177
-0.0401125
-0.00819803
0.0483106
0.927874
-0.073844
-0.85403
-0.552079
0.526903
0.546174
-0.552079
-0.591252
0.526903
0.0142477
0.922527
-0.0224402
-0.536201
0.452032
0.0841689
0.525352
0.630286
-1.15564
0.52996
0.484626
0.621765
0.532908
-1.15467
0.516972
0.443679
0.452032
-0.514627
-0.486975
-0.682918
-0.615465
-0.221633
-0.00653385
0.00653385
0.673922
0.530607
-1.14607
0.724164
-0.359301
-1.08973
0.377146
-0.687124
0.446425
-0.0381818
-0.978162
1.01634
0.452963
-0.0420154
0.96989
-1.09906
-1.02967
0.0865013
0.943171
0.194539
-0.165054
-0.0294848
0.727217
-0.787359
0.971644
-1.00782
0.0361775
0.0285508
-0.765845
-0.172304
0.927249
-0.754945
-0.981764
1.01032
-0.701908
0.528865
0.173043
-0.714627
0.0181168
0.69651
0.00315769
-0.00499974
0.424621
0.127418
-0.975261
0.847843
-0.781818
0.750276
1.07558
0.0638377
-1.13942
0.0459063
-0.0076268
0.421241
-0.361199
0.0390856
0.944301
-0.982483
-0.598794
-0.70111
-0.0647346
-0.16842
-0.9708
-0.0370211
0.476379
0.0784781
-0.163882
0.358421
-0.651093
0.66921
0.473705
-1.02018
-0.917927
0.00460021
-0.128812
0.66911
-0.540298
0.0455436
-0.727606
0.578363
0.181911
-0.0180167
0.987906
1.09682
0.944354
-0.981375
0.045878
-0.045878
-0.0741377
-0.0657171
-0.0993372
0.342525
-0.0220402
0.199524
1.03345
0.0133344
-0.0201665
0.657579
0.342421
0.796703
-0.607853
-0.756978
-0.614142
-0.481777
0.481777
-0.209257
-0.108448
0.6414
-0.955755
0.314354
-0.464592
-0.545935
0.345952
-1.02388
-0.982428
1.01861
-0.720232
0.655497
0.664236
0.206711
-0.870948
-0.441099
-0.183227
0.863446
-0.680219
-0.0510218
0.0101795
0.00192901
-0.0121085
0.0627703
-0.128487
0.987352
0.541651
-0.255538
-0.286113
0.512166
0.751513
-0.526636
0.0142422
-0.287373
0.0661728
0.74397
-0.810143
-0.359646
-0.0558858
0.143813
-1.02018
0.166147
-0.749043
0.12525
0.739546
-0.864796
-0.914184
0.16514
0.727647
-0.783532
0.232228
-0.353024
-0.486673
0.0455739
0.36821
0.723122
-0.0299437
-0.00304266
0.00304266
-0.00578363
-0.0109474
-0.0291652
-0.0168395
0.0301739
-0.408194
0.343471
0.745492
-0.840961
0.0954688
-0.731129
0.856379
0.804918
-0.0772719
-0.724874
-0.18931
-1.14751
0.0210157
0.0248622
-0.342022
-0.897178
-0.842785
0.43306
-0.227688
0.293484
-0.0657964
-0.421038
0.0790161
0.504395
0.71212
-0.0423476
-0.0171928
0.974603
0.516469
0.17729
-0.693758
-0.313897
-0.107141
-0.0023686
0.0125481
0.747211
-0.920245
0.00543185
-0.00543185
-0.710528
0.759636
-0.0491083
-0.477779
-0.115567
-0.703387
0.0622402
0.664133
-0.0524738
-0.886614
-0.236188
0.294192
-0.0580042
0.802908
-0.707439
0.349538
0.253258
-0.602796
-0.149967
-0.72728
-0.137516
-0.194059
-0.173947
0.472177
-0.516047
0.160609
0.751631
-0.91224
0.483356
-0.201018
-0.0266697
-0.104117
-0.0698307
0.594142
-0.0936287
-0.500513
-0.286354
0.307556
-0.0212014
0.563601
0.160562
0.0776385
-0.31341
0.171556
0.141854
-0.0654297
-0.078244
-0.322075
0.169546
-0.00476614
-0.16478
0.940729
-0.304961
-0.172817
0.554076
0.314641
-0.570178
0.398791
-0.398791
-0.197462
-0.388814
-0.214344
-0.388814
-0.706356
-0.851764
0.181278
-0.404299
0.733738
0.0489644
0.153678
0.569444
0.108623
0.117967
0.0107137
-0.128681
-0.110107
0.705617
-1.0367
0.517164
0.003172
0.0543957
-0.0575677
-0.757491
-0.178534
-0.556939
0.734228
-0.527477
0.00315689
-0.0729876
-0.341991
-0.0797415
0.0797415
0.0463585
-0.00135426
0.138983
0.21524
-0.71728
0.160341
-0.00502603
0.473197
0.526803
0.827914
0.0151869
0.0252435
-0.0404304
-0.297913
-0.588701
-0.517987
0.115428
-0.120023
0.00459473
-0.14656
-0.411274
-0.0967858
0.760918
-0.594679
-0.162812
-0.0161344
-0.00256664
0.157002
-0.3556
-0.198543
-0.184223
-0.0259607
-0.471259
0.427355
0.0439045
-0.00180527
0.295099
-0.865352
-0.534889
0.650811
-0.876952
0.726986
0.451778
-0.0322998
0.0570189
-0.0247191
0.148939
-0.633914
-0.00916692
0.643081
-0.893398
0.64967
-0.723808
-0.0180923
0.00662936
-0.00662936
-0.299167
0.437446
-0.0162058
-0.00734824
0.0225351
0.586471
0.505621
-0.637405
0.0119165
0.00085512
-0.00389778
0.00481317
-0.00481317
-0.478638
0.6392
0.0155429
-0.0155429
-0.781834
-0.00769233
0.01085
-0.487648
0.647989
0.550342
-0.599451
0.0691654
-0.0691654
0.0100923
-0.0416245
0.0126502
-1.08999
0.641677
-0.544434
-0.00499975
0.608356
0.00293315
-0.611289
-0.71136
0.116682
-0.314654
-0.0129506
0.327605
-0.0203977
-0.0219499
-0.607976
-0.0259373
0.0248622
0.00564357
-0.000211719
-0.00283712
0.00283712
-0.366792
0.202012
-0.465815
0.133418
0.663286
-0.124314
0.00497167
-0.00497167
0.50844
0.00282105
0.00847142
0.0182329
-0.000186573
0.641056
-0.638235
-0.799751
0.626934
-0.106988
0.329341
0.789174
-0.00578363
-0.0893046
0.0896663
-0.636709
0.547256
-0.241407
-0.103005
-0.029613
-0.0261561
0.00840405
0.4795
-0.0856032
-0.41491
0.716786
0.00172068
0.00378898
-0.00378898
-0.217224
-0.151552
-0.56981
0.618774
-0.135341
0.508912
-0.199993
0.844364
0.870757
0.00564357
-0.728796
0.621172
0.0141958
-0.00775905
-0.00643674
0.625128
0.0929627
-0.0119008
0.0660715
-0.0541706
0.00906372
-0.00906372
-0.743397
0.0232875
-0.0433633
0.0615962
-0.0855457
0.0855457
0.00085512
-0.000811963
0.765624
0.079449
-0.316114
-0.0951601
-0.521332
-0.00193862
-0.0662422
0.0662422
-0.0303381
0.0814795
-0.0814795
0.0264872
-0.0264872
-0.35839
-0.0735971
0.238956
0.0705384
0.0532406
-0.728971
-0.0601662
0.159558
0.0218022
-0.239031
0.0815326
-0.0815326
-0.468257
-0.0477901
0.228338
-0.00958971
0.00280645
-0.666851
0.652603
0.0279785
-0.0583165
0.0217196
-0.063344
-0.0123141
-0.157368
0.169682
-0.148438
-0.204586
-0.0806802
0.0806802
0.0540279
-0.0540279
-0.0277425
-0.0936551
0.121398
-0.0299207
-0.190367
0.000192001
-0.00408978
-0.212589
0.414601
-0.0257136
0.4354
0.0092394
0.00857862
-0.0506743
0.0506743
-0.732975
0.315594
-0.12714
-0.207189
-0.0227816
-0.0173878
0.0201943
0.192621
0.0312164
-0.00261508
0.00242851
0.0855313
0.0298967
0.0563131
0.103245
-0.0237933
0.00660055
-0.00164288
0.00638054
0.0047365
0.00151749
-0.00625399
-0.00293386
0.0109601
0.027221
-0.027221
0.0486836
-0.0433635
0.0433635
-0.189643
0.0149592
0.0317919
-0.0756982
0.0174235
0.0778549
-0.0778549
0.236526
-0.235095
0.0866578
-0.0662985
-0.168797
-0.0148556
0.0148556
0.408436
0.250274
-0.520882
-0.0804109
-0.0396119
0.541854
-0.00820118
-0.0580882
-0.466289
0.0970286
-0.151498
0.168617
-0.0171196
-0.0479582
0.0479582
0.886202
-0.589161
-0.00479384
0.00185998
-0.00580421
-0.286982
5.31033e-05
0.00486551
-0.0439115
-0.629641
0.569122
-0.659874
0.014438
0.134778
0.0155679
0.0241871
-0.157302
-0.33328
0.257582
-0.0545494
0.0268069
0.173301
0.134255
0.197586
0.26249
-0.246922
0.00452478
-0.113681
-0.220139
0.0669149
-0.0106018
0.159537
-0.13535
-0.0682855
0.153817
-0.406616
0.120469
-0.103046
0.0585319
-0.473442
0.173483
0.179658
-0.247944
0.008345
-0.178516
0.178569
0.0036777
0.150139
-0.0278205
0.0481891
0.460251
0.0123655
0.0170311
-0.00106932
0.0354401
-0.237259
-0.203077
0.590085
0.166721
0.0616177
0.0744855
-0.0642884
0.0672649
-0.0737016
-0.0303985
0.165139
-0.150701
0.0254351
-0.00888362
-0.105394
-0.0283771
0.0320357
0.251898
-0.0145112
0.00392084
-0.308774
-0.00699074
0.218744
0.138879
0.176716
0.0564918
0.095684
0.0555408
0.53093
-0.00789686
0.10609
0.0410003
0.0674324
-0.108433
-0.270608
-0.19537
0.0265735
-0.221543
0.2822
)
;

boundaryField
{
    FrontBack
    {
        type            empty;
    }
    Top
    {
        type            calculated;
        value           uniform 0;
    }
    In
    {
        type            calculated;
        value           uniform -1;
    }
    Bottom
    {
        type            calculated;
        value           uniform 0;
    }
    Out
    {
        type            calculated;
        value           nonuniform List<scalar> 10(1.15172 1.03998 1.16989 1.0016 1.16319 1.05914 1.20453 1.01053 0.596253 0.603158);
    }
    circle
    {
        type            calculated;
        value           uniform 0;
    }
}


// ************************************************************************* //
