/*--------------------------------*- C++ -*----------------------------------*\
| =========                 |                                                 |
| \\      /  F ield         | OpenFOAM: The Open Source CFD Toolbox           |
|  \\    /   O peration     | Version:  2412                                  |
|   \\  /    A nd           | Website:  www.openfoam.com                      |
|    \\/     M anipulation  |                                                 |
\*---------------------------------------------------------------------------*/
FoamFile
{
    version     2.0;
    format      ascii;
    arch        "LSB;label=32;scalar=64";
    class       volVectorField;
    location    "21";
    object      U;
}
// * * * * * * * * * * * * * * * * * * * * * * * * * * * * * * * * * * * * * //

dimensions      [0 1 -1 0 0 0 0];

internalField   nonuniform List<vector> 
808
(
(0.893838 -0.0103775 0)
(1.02505 -0.035508 0)
(1.19041 0.0918576 0)
(1.06927 0.0101251 -2.48256e-21)
(1.47739 -0.296896 0)
(0.957803 -0.0283622 0)
(1.15174 -0.0571432 -4.48665e-23)
(1.13891 -0.0368255 0)
(1.35612 -0.234333 2.29908e-20)
(1.23789 -0.0958477 -7.47062e-21)
(1.13044 -0.063442 7.69306e-21)
(1.38299 -0.267052 0)
(1.00831 -0.0452261 0)
(0.747469 -0.0259399 0)
(0.90594 0.0511588 1.58749e-20)
(1.0947 -0.0410165 0)
(0.793217 0.012061 -4.80771e-21)
(0.998751 -0.0466619 -6.69675e-23)
(1.14992 0.0648719 0)
(1.12067 0.00210918 0)
(1.16357 -0.0857252 -1.0737e-20)
(0.930281 0.122744 1.14215e-19)
(1.07489 0.0138852 -1.43448e-20)
(1.17914 -0.0305475 0)
(0.948325 0.17909 0)
(1.31747 0.0617399 -2.62404e-20)
(1.28358 -0.18198 5.69064e-21)
(0.946563 -0.029268 -1.64481e-21)
(1.08762 -0.0315881 0)
(1.03349 0.0435155 -2.3242e-22)
(0.978444 -0.032771 2.41125e-24)
(1.12651 -0.0121443 0)
(1.03905 0.0261249 0)
(1.06886 -0.0243591 1.37039e-21)
(1.31111 -0.0757481 8.41538e-21)
(0.740839 -0.11931 1.13011e-19)
(0.880416 -0.0307809 -6.09963e-21)
(1.01819 0.0311428 1.05997e-21)
(1.20256 0.0468358 -2.49576e-21)
(1.08531 0.021998 0)
(1.26993 -0.0651054 -1.63156e-20)
(1.28034 -0.136824 0)
(1.01166 0.00315714 -8.36319e-21)
(1.10942 -0.048195 7.73092e-21)
(1.18579 0.0222114 0)
(1.01074 0.0170152 -2.09115e-20)
(0.99387 0.034956 1.53928e-21)
(1.25527 -0.257564 -1.52388e-22)
(1.17566 0.0435921 -4.85283e-21)
(1.41229 -0.193404 -3.32149e-20)
(1.14137 -0.0658231 9.55638e-22)
(1.15102 -0.0757211 0)
(1.121 -6.04532e-05 7.45762e-21)
(1.11691 -0.0191615 0)
(1.31102 0.235059 3.75666e-21)
(1.0683 0.0367507 -1.79347e-21)
(1.17125 -0.0169796 0)
(1.13841 -0.00394261 5.48878e-21)
(1.24077 -0.0981594 8.01907e-21)
(1.13956 0.0340723 1.43634e-22)
(-0.334174 0.0689425 0)
(1.21774 -0.219632 -4.67594e-21)
(1.15286 -0.0102309 0)
(1.44618 -0.0837498 -2.84729e-20)
(1.10652 -0.04501 -9.30551e-21)
(1.04366 -0.0297994 -8.29101e-21)
(1.35911 -0.150809 3.04273e-20)
(0.641042 0.0197156 0)
(1.11312 -0.0690805 0)
(1.43976 -0.362534 0)
(0.89546 0.0300737 -1.93531e-22)
(1.23743 -0.151041 -3.71366e-20)
(1.01402 0.0514889 0)
(1.05031 -0.0416449 -2.71938e-21)
(1.12551 -0.340825 -5.94973e-20)
(1.12276 -0.0635818 -7.40725e-21)
(1.14276 0.0260952 4.99871e-22)
(1.31346 0.49061 2.48522e-20)
(1.11212 -0.0511196 0)
(1.0124 0.277381 -1.89092e-19)
(1.33759 0.0463161 1.45461e-20)
(0.736706 0.0227201 0)
(0.837677 0.0329511 -8.4485e-21)
(0.968452 -0.11175 4.39066e-21)
(1.10529 -0.0592227 5.89843e-21)
(1.19081 0.0159367 1.60653e-21)
(1.27517 -0.243996 0)
(1.3429 0.280515 0)
(1.08828 0.00243925 -1.1346e-20)
(1.37147 0.0929517 2.88383e-20)
(1.08213 -0.0181629 1.18527e-20)
(1.32574 -0.129824 -1.34194e-21)
(0.965017 0.0259813 1.77798e-20)
(1.0044 -0.0219869 0)
(1.11492 0.0209687 1.69512e-21)
(1.34673 -0.0755255 -8.40883e-20)
(0.752276 0.0177496 -2.73721e-21)
(1.34308 -0.0179205 0)
(1.33619 -0.0922757 0)
(1.43612 -0.115427 -4.56482e-20)
(1.10674 -0.0590522 -2.38374e-21)
(1.12583 0.0110695 5.75701e-24)
(0.949138 0.0223249 1.01749e-20)
(1.18276 0.0160202 -5.87696e-22)
(1.32849 0.0408102 -3.0207e-20)
(1.00351 0.00706024 1.41346e-20)
(1.44735 0.00849231 0)
(0.852187 -0.0600474 0)
(1.09307 0.028995 3.5676e-21)
(1.20462 -0.224219 -8.46405e-21)
(1.26977 0.0303327 1.15371e-20)
(1.04615 0.046176 -1.25871e-19)
(1.15401 0.0387244 -1.26124e-21)
(1.2166 0.00543583 2.92561e-21)
(0.786979 0.0157057 0)
(0.917039 -0.0494384 7.77374e-20)
(1.14346 0.0241114 -3.16372e-21)
(1.43378 -0.277195 -1.63137e-20)
(1.11915 -0.0392201 -6.25497e-21)
(0.928298 0.0174472 2.50614e-21)
(-0.361104 0.0422655 0)
(0.864891 -0.0152559 2.33722e-21)
(0.797549 0.0236528 0)
(1.06206 0.00317502 -8.83982e-23)
(1.01158 0.0283343 0)
(1.30377 0.319666 6.09736e-21)
(1.03562 -0.0559127 -3.20885e-20)
(1.31168 0.0302921 2.30085e-21)
(1.15242 -0.0615085 0)
(1.09313 -0.0224585 0)
(0.591632 -0.0795354 0)
(1.12455 -0.0363314 -3.69778e-21)
(1.25516 -0.0528134 9.43644e-21)
(1.06537 0.112875 -3.50581e-20)
(0.852323 -0.0174536 0)
(1.10089 0.0243338 -8.60546e-22)
(1.17895 0.150379 1.02619e-21)
(1.21783 0.0552878 1.50523e-22)
(0.988651 0.0307306 3.06389e-21)
(1.12671 0.00774601 -4.8263e-24)
(-0.0238552 0.00587006 0)
(1.09779 -0.0212633 -1.32218e-20)
(1.16156 0.138414 2.3712e-21)
(0.72475 0.0240034 -3.13349e-21)
(1.25438 0.164803 3.30344e-21)
(1.12388 0.0743507 3.07551e-22)
(1.04773 0.0161227 1.66359e-20)
(0.991188 0.0264761 0)
(1.19561 0.0239472 -2.68572e-20)
(1.02164 -0.0185801 0)
(0.939546 0.0315693 6.41099e-21)
(0.968316 0.278162 1.51211e-19)
(0.968173 0.0342614 0)
(0.817848 0.0936616 0)
(-0.120682 -0.0399964 -6.34729e-20)
(1.33225 0.132187 -1.09769e-20)
(0.676017 -0.0204468 0)
(1.41303 0.0600099 0)
(1.20305 0.151103 0)
(1.33854 0.102583 1.21314e-20)
(-0.0417518 -0.133096 0)
(-0.0629954 0.0164065 3.09372e-20)
(0.983344 -0.0790474 7.70826e-20)
(1.00194 0.0381513 6.5843e-22)
(0.862371 0.00157992 0)
(1.03303 -0.0316681 9.76579e-21)
(0.889641 0.0232138 0)
(0.739666 -0.064414 -8.33009e-20)
(1.03113 0.0419567 8.20136e-21)
(1.11073 -0.0400542 3.27452e-21)
(1.09537 0.010415 5.62175e-21)
(1.01337 0.0682115 -1.25886e-20)
(0.819857 0.0130579 -3.06174e-22)
(1.13983 -0.353686 6.82898e-22)
(0.911994 -0.0277395 0)
(1.06908 0.000576582 -1.34198e-20)
(0.87532 0.00948577 -1.15615e-20)
(1.39021 -0.182035 2.03743e-21)
(0.697496 0.0309527 0)
(1.03158 -0.151039 0)
(1.11918 -0.0183316 3.25383e-21)
(1.38343 0.21058 8.83057e-21)
(1.11391 0.0192513 3.86741e-21)
(1.03676 0.0191374 1.99675e-20)
(0.630069 -0.00360861 -5.25437e-20)
(0.813958 0.00257073 2.06766e-20)
(1.14051 -0.019319 4.85025e-21)
(1.40553 -0.0789229 -5.32594e-21)
(1.10363 -0.0357957 -5.80628e-21)
(1.33899 -0.0425343 4.5639e-21)
(-0.123406 -0.0164919 4.61901e-20)
(1.28207 -0.0138755 0)
(0.613717 -0.0179419 0)
(1.06572 -0.0252514 -6.54275e-21)
(1.09854 0.0141099 4.08447e-21)
(0.0183997 0.0380763 0)
(0.876707 -0.0234258 3.57321e-22)
(1.12726 -0.0214466 -3.47554e-21)
(0.970488 0.0354701 1.57106e-21)
(1.0779 0.0406387 -7.79168e-21)
(1.00596 0.0187469 2.77831e-21)
(1.05138 -0.0316415 3.06583e-21)
(1.03945 0.0262103 0)
(0.3151 -0.0497677 0)
(1.04604 -0.0629817 0)
(1.13126 0.101528 -2.71608e-20)
(-0.0385389 -0.147762 4.35145e-20)
(1.09623 0.0295243 -1.29023e-23)
(1.10181 0.0472243 0)
(0.754136 0.0185316 -5.93635e-21)
(1.12025 -0.0412529 1.96859e-21)
(-0.0118976 -0.0397113 -1.38674e-19)
(0.865195 -0.0199406 -5.75708e-20)
(0.623903 -0.0182675 0)
(0.892807 -0.0343418 0)
(0.93616 0.0483604 6.62134e-21)
(1.00056 -0.12368 5.26941e-21)
(1.27276 0.392952 -3.04518e-21)
(1.06614 0.00367075 -1.86341e-22)
(1.15965 -0.00359971 -4.88216e-21)
(0.997272 -0.0259851 0)
(1.35593 0.41698 -3.33998e-20)
(0.664688 -0.0248515 0)
(0.802097 -0.0226726 -3.5859e-21)
(1.04361 -0.022218 4.83985e-22)
(0.578386 0.0154169 0)
(1.10016 -0.00599963 0)
(0.0847852 -0.055573 -5.05867e-20)
(1.09669 0.0420981 -9.16826e-21)
(0.714327 -0.0166746 1.33055e-21)
(0.990464 -0.00200901 0)
(0.540734 -0.0191407 0)
(0.754971 -0.0180347 -2.83942e-21)
(0.52385 -0.0205428 -3.94902e-22)
(1.33009 0.0597958 2.4334e-22)
(1.19244 -0.00135227 -5.91865e-21)
(0.695715 0.0177139 -2.11701e-21)
(1.10349 -0.0152438 1.93422e-22)
(1.05848 0.0308876 1.75589e-22)
(0.542917 0.0169131 5.5903e-21)
(1.19271 0.00904537 7.17268e-22)
(1.15209 0.0220585 0)
(0.910172 0.0474552 0)
(0.490064 0.0202695 0)
(1.03989 -0.00825299 0)
(1.17077 0.0479913 -5.03609e-22)
(1.00304 0.0468366 0)
(1.16131 0.000121639 0)
(1.05927 0.0682026 0)
(1.16991 0.113108 0)
(-0.0224197 -0.0494891 4.29974e-20)
(1.25062 0.0710504 2.50832e-22)
(1.17871 0.0733823 0)
(1.36263 0.0638379 2.10612e-20)
(1.21711 0.0351531 4.61436e-22)
(1.11028 0.0378136 1.7535e-21)
(1.20113 -0.0448834 3.98604e-21)
(1.20229 0.0707831 0)
(0.57318 -0.017659 6.57526e-21)
(1.05025 0.0434454 1.22437e-20)
(1.23825 -0.00182176 0)
(1.1451 -0.0316056 -2.35409e-21)
(1.22444 0.0220144 2.68195e-21)
(0.414956 -0.0493548 -8.68247e-21)
(1.10935 0.0385325 5.19986e-21)
(1.18006 -0.0809129 -3.93211e-21)
(0.995373 -0.0611215 0)
(1.26258 0.0610511 -8.9088e-21)
(1.1273 -0.0254408 -3.36543e-21)
(0.7766 0.170739 9.08805e-21)
(0.775299 -0.00372714 0)
(-0.0253984 -0.0221328 0)
(0.976141 0.111648 -1.82359e-20)
(1.12634 -0.046974 0)
(1.32896 -0.0592078 2.38793e-20)
(1.19016 0.000417567 9.64964e-22)
(1.15623 -0.0547088 3.78011e-21)
(1.19354 0.00728574 -2.32044e-21)
(1.38572 -0.0523501 1.23339e-19)
(1.02038 -0.328816 6.00702e-20)
(1.16529 -0.0406084 -5.66776e-22)
(0.923495 0.0494518 0)
(0.798875 -0.0805961 0)
(0.904693 0.00464311 -2.80097e-20)
(1.23226 0.0142885 -3.36192e-20)
(1.17531 -0.077367 0)
(0.67438 0.075356 3.51516e-21)
(0.28337 -0.231001 0)
(0.760188 -0.0151605 2.28045e-21)
(0.93049 0.126038 -4.28813e-21)
(0.812741 0.0296255 -4.06534e-21)
(1.23338 -0.0348803 0)
(1.22394 -0.038255 -1.12558e-21)
(1.09872 -0.0273486 6.38149e-21)
(0.714183 0.0955897 -5.93405e-21)
(1.21708 -0.0727651 -3.77349e-21)
(0.778044 0.123006 0)
(1.09131 0.0730775 0)
(1.16182 -0.0366637 1.17479e-21)
(0.877231 0.0225349 -2.30364e-21)
(1.29208 0.00479846 4.52955e-21)
(1.15352 -0.0460085 -2.57033e-21)
(0.940206 -0.0430762 8.4463e-22)
(1.11222 -0.0502728 0)
(0.409009 -0.138069 1.30301e-20)
(1.32699 0.0975467 -1.80593e-20)
(0.932382 0.140263 -1.08459e-20)
(0.0789139 -0.139643 9.18111e-21)
(1.43746 -0.148327 2.47158e-20)
(0.800954 -0.0166615 4.9459e-20)
(1.28721 -0.0768438 -1.28596e-21)
(1.13556 -0.0372317 -4.94278e-22)
(-0.0522115 -0.159025 -7.43487e-21)
(1.00088 -0.0065103 0)
(1.03384 -0.0882199 -1.64724e-20)
(0.859454 -0.0328271 6.74105e-21)
(1.09953 -0.050253 3.23011e-21)
(0.780894 0.102725 -1.87051e-21)
(0.501991 -0.0178213 -2.94934e-22)
(1.41543 -0.392506 -1.51918e-20)
(1.10735 0.0663328 0)
(1.01251 0.026453 -2.1695e-22)
(1.12786 0.0434379 -2.05859e-21)
(1.31198 -0.103958 0)
(0.765618 -0.0950685 -4.30364e-21)
(1.13718 0.0547318 2.54527e-21)
(0.644391 0.143831 1.91697e-20)
(1.16975 -0.0414042 6.43954e-21)
(0.924792 -0.0730001 2.06891e-21)
(-0.0371698 -0.0909293 0)
(0.0990761 0.207926 -2.72474e-21)
(1.1186 0.0493914 0)
(0.867379 0.0346038 -1.46478e-20)
(0.771648 -0.0450911 0)
(1.13483 -0.0017322 3.03437e-21)
(1.01693 0.0266435 0)
(1.17804 -0.0996556 0)
(1.41292 -0.134108 2.20259e-20)
(0.797801 -0.0905078 0)
(1.06812 -0.0772275 2.71043e-20)
(1.09235 -0.0166317 -8.07406e-23)
(1.0528 0.0536359 2.47381e-21)
(1.297 -0.00392762 -1.30894e-20)
(1.23598 0.127227 -3.8629e-21)
(1.18292 0.046345 1.90609e-20)
(1.15819 0.069104 0)
(1.19933 -0.0932249 0)
(1.14181 0.063714 1.27294e-21)
(1.24162 -0.0117887 0)
(1.39648 0.200889 -2.35483e-20)
(0.662664 0.0695075 1.88736e-21)
(1.02697 0.0182959 2.26777e-20)
(1.24105 0.0517137 -2.89427e-22)
(-0.0102603 -0.0257251 0)
(-0.0319119 -0.0862674 0)
(0.117992 -0.032238 -4.15572e-20)
(-0.0419154 -0.157625 0)
(0.558069 0.042527 -1.42066e-20)
(1.18908 0.0487216 -2.00583e-21)
(1.15447 -0.0907679 -3.00723e-21)
(1.30455 -0.13087 -1.95157e-21)
(1.24197 -0.0291452 0)
(0.675836 -0.0126258 -9.57299e-22)
(1.19045 0.0695504 0)
(1.13382 0.0451491 3.92713e-22)
(0.493079 -0.109981 0)
(0.589792 -0.0600435 -5.91563e-22)
(1.1776 0.0563095 0)
(1.12556 0.0232304 0)
(0.839458 0.130138 6.81221e-20)
(0.487197 -0.119372 -1.30577e-21)
(0.915505 0.0111243 -8.03096e-22)
(1.01033 0.0180657 -9.42465e-21)
(0.166917 -0.122291 0)
(1.16026 -0.00557432 -3.35306e-20)
(1.20254 0.0370281 -2.63584e-21)
(1.04938 0.0236213 1.74027e-21)
(0.644329 -0.138695 9.07954e-21)
(-0.0498685 -0.121604 -9.04087e-20)
(1.17791 0.0395491 0)
(-0.0353256 0.0376461 0)
(1.18722 0.0272033 3.99131e-21)
(0.496759 -0.228446 -9.77195e-21)
(1.0962 0.0231612 -1.10376e-20)
(1.11908 -0.0473157 0)
(1.13278 -0.0790336 2.04754e-21)
(1.27465 -0.110431 2.56519e-20)
(0.519272 -0.0593925 -8.72358e-21)
(1.15549 -0.0414584 -4.84211e-22)
(1.17105 -0.0975481 5.94641e-24)
(0.303153 0.133043 1.06332e-20)
(1.22332 -0.132865 -2.37908e-21)
(1.12697 0.0377834 0)
(1.19479 0.0521231 0)
(1.22137 -0.0705974 5.06036e-21)
(1.16577 0.0524358 2.38222e-21)
(0.664347 -0.0148943 -6.15558e-20)
(1.19531 -0.123677 -1.58856e-20)
(1.12285 0.0425229 6.37747e-21)
(0.504781 -0.00257981 1.03217e-20)
(0.484615 0.0249222 -1.24667e-19)
(-0.152043 0.181328 3.28919e-20)
(1.17045 0.181937 -6.53208e-21)
(1.2364 -0.500639 4.5406e-21)
(1.3719 0.0782035 -1.87917e-20)
(1.24042 -0.0447997 -5.99672e-21)
(0.939372 -0.237812 9.61052e-20)
(-0.113817 0.166354 0)
(1.14116 -0.000268078 -9.20819e-22)
(-0.0133905 0.245074 -1.56161e-20)
(1.18468 0.0324203 -3.45391e-21)
(1.20734 0.00521809 7.24479e-21)
(1.09112 0.0413968 0)
(0.729307 -0.236845 0)
(1.17194 -0.0507131 0)
(1.17895 0.0594201 5.57701e-21)
(1.25799 -0.010934 -2.55544e-20)
(1.17219 -0.0584372 -2.53593e-21)
(0.450307 0.017265 0)
(0.602 0.00944298 0)
(0.610369 0.00115115 6.21529e-22)
(0.42694 -0.0129317 0)
(1.15557 0.000239293 0)
(1.02337 -0.0132627 2.52497e-20)
(0.524291 -0.19601 0)
(0.922286 0.0329856 0)
(1.09238 -0.0367616 0)
(1.16946 0.187836 -8.80125e-21)
(1.23818 0.0448946 8.90236e-21)
(0.971607 -0.0313912 6.92145e-21)
(1.28833 -0.406307 -1.02741e-19)
(0.693298 -0.0869522 1.99582e-20)
(1.3301 0.0953717 2.67152e-21)
(1.25815 -0.0816994 0)
(-0.463746 0.0887399 0)
(-0.247588 -0.0378194 0)
(1.18106 -0.0280225 -5.10547e-21)
(1.32483 -0.297006 -2.01546e-20)
(1.29101 0.10082 0)
(1.09758 0.0553647 -6.45246e-21)
(0.314693 -0.057715 0)
(1.51887 -0.180681 7.06532e-20)
(0.409821 0.514944 1.2175e-19)
(0.260049 -0.0599415 0)
(1.09201 -0.281752 1.10287e-19)
(0.469354 0.20148 0)
(-0.175408 0.0377867 1.28434e-20)
(1.27951 0.0980179 0)
(-0.0667432 -0.0341843 -2.35318e-21)
(0.983496 -0.0492869 0)
(1.30997 -0.0809151 -1.13509e-20)
(-0.134524 -0.09118 -7.36088e-21)
(1.13293 -0.0257691 7.24616e-22)
(1.16697 -0.0962995 -1.07888e-20)
(0.575284 -0.523134 -9.27656e-20)
(1.19971 0.0268982 -9.2902e-22)
(1.19886 -0.1306 4.27644e-21)
(1.1772 0.245156 -2.28842e-20)
(1.1948 -0.116142 -1.11842e-20)
(1.17321 -0.00943263 -2.91259e-22)
(-0.188554 -0.0390419 -4.59568e-20)
(0.00864698 0.0261157 -6.79754e-21)
(1.35052 0.0482024 1.89722e-21)
(1.05919 -0.0496392 0)
(0.47614 -0.11916 -1.89923e-21)
(1.40232 -0.4504 7.62652e-20)
(0.918809 -0.094091 -5.52025e-20)
(1.40585 0.147801 6.64446e-20)
(1.08175 -0.048259 2.4986e-21)
(1.16825 -0.143694 5.67099e-21)
(1.0625 -0.00686015 0)
(1.18073 -0.0129491 0)
(1.3292 -0.095415 8.66441e-21)
(1.08763 -0.0191772 -4.52881e-21)
(1.22823 -0.22003 1.18818e-20)
(1.11382 0.0410826 -5.19025e-21)
(1.45055 -0.00678163 -5.20673e-20)
(0.4436 0.023496 0)
(1.27502 -0.142453 -9.10869e-21)
(1.31356 0.102339 0)
(1.13097 0.0426978 -3.73268e-21)
(1.14323 0.0298241 0)
(1.0414 -0.00864042 1.29994e-20)
(1.23253 0.0450875 1.1425e-20)
(1.14309 -0.0909674 0)
(0.0473434 -0.0308274 1.47648e-19)
(0.88422 -0.216525 -7.53801e-20)
(1.35553 0.0305762 -3.59847e-20)
(-0.104379 -0.0990075 3.81065e-20)
(1.18885 0.0293996 3.21218e-22)
(0.703055 -0.0896577 -2.40747e-21)
(-0.0976835 -0.0730927 -3.97349e-20)
(-0.0207946 -0.0197097 -2.4913e-20)
(1.01953 -0.0298589 0)
(-0.0283226 -0.0357574 0)
(1.21188 0.162136 0)
(0.112016 -0.109803 0)
(1.12198 -0.0293257 0)
(0.124261 0.0258525 0)
(1.11192 0.0444783 0)
(1.13703 0.163569 0)
(1.31055 0.0601997 -5.48024e-21)
(0.572843 -0.28529 -2.05033e-20)
(-0.178912 0.00853232 0)
(1.126 -0.107633 5.74516e-20)
(1.32442 0.0667925 -1.87623e-22)
(1.37545 0.136561 0)
(-0.0382077 -0.0406638 0)
(1.16245 0.0208931 8.33159e-22)
(1.17485 0.00323984 -9.57092e-22)
(1.16411 0.385759 0)
(0.235959 -0.101249 5.4998e-20)
(1.1207 0.0641267 1.38355e-21)
(0.226576 -0.0521493 -5.03597e-20)
(-0.0602625 0.0453191 -3.0531e-20)
(-0.0317043 0.0484521 7.95365e-20)
(0.37786 0.265483 1.08431e-20)
(1.03693 -0.0817911 2.26559e-21)
(1.13118 0.0460048 -4.86872e-21)
(1.02389 -0.00777041 0)
(1.07054 -0.071805 -2.22478e-20)
(1.20924 0.0725649 -9.56819e-21)
(-0.00981672 -0.0422749 9.27893e-20)
(0.981733 -0.0730464 -6.07735e-20)
(0.642764 -0.11612 4.91678e-21)
(1.16441 0.0167366 -2.21606e-21)
(0.0658504 -0.0323769 3.13645e-20)
(0.235679 -0.0395348 -4.50092e-20)
(0.377503 -0.0783823 -4.98521e-20)
(1.1711 0.0217563 1.01638e-20)
(-0.0553757 -0.0366163 0)
(0.971292 -0.0380416 5.67534e-21)
(1.17905 -0.216412 -5.42822e-21)
(1.20751 -0.221539 5.23412e-21)
(1.30388 0.0461878 0)
(1.52093 -0.237091 6.76221e-20)
(1.14186 0.0266397 -3.22378e-21)
(-0.0146225 -0.0482683 -3.17136e-20)
(0.284351 0.0527311 0)
(0.898686 0.034087 -2.3266e-21)
(1.12642 0.025508 -2.09226e-22)
(0.532315 0.0573334 1.66554e-20)
(1.16747 0.0183256 3.21765e-22)
(1.11705 0.0541794 0)
(1.13169 -0.177682 -1.38488e-20)
(-0.0690961 -0.136135 -6.37653e-20)
(1.3227 -0.0172771 2.54112e-20)
(1.10106 0.175423 -8.84293e-21)
(1.12137 0.0450155 5.93601e-21)
(-0.0403236 -0.0621079 1.44085e-20)
(-0.0234621 0.0261004 -5.89263e-20)
(0.834062 0.0347658 0)
(0.837778 0.251996 0)
(1.14972 0.0999344 -1.85022e-20)
(1.05098 0.069095 1.34357e-20)
(1.12451 0.0396964 0)
(0.549233 -0.079862 5.54844e-20)
(0.73027 0.079126 -1.08769e-20)
(1.09758 0.107452 0)
(1.10697 0.0520144 0)
(1.32309 0.168646 0)
(1.15216 0.0417625 0)
(1.25098 0.108492 1.96513e-21)
(-0.0427452 0.044992 3.3345e-20)
(1.16826 0.000778072 7.07705e-21)
(1.41277 -0.211164 -7.83019e-20)
(1.24911 0.110285 -3.1678e-21)
(-0.0746495 0.0422852 0)
(1.185 -0.182654 0)
(0.614584 -0.0103727 2.50627e-22)
(0.535631 0.0069961 -5.67773e-20)
(0.07381 0.0348935 4.61926e-20)
(0.933381 0.0259185 3.08517e-22)
(0.735054 -0.272537 0)
(0.665718 -0.0931858 0)
(1.18837 0.101705 0)
(0.537452 0.510217 1.73027e-20)
(-0.014749 0.00358305 -2.75873e-20)
(1.13179 0.0417426 9.25352e-22)
(-0.0215097 -0.0853251 6.02205e-20)
(1.14835 -0.0239418 2.53071e-21)
(1.16935 0.312687 4.3648e-20)
(1.11524 -0.0919033 8.4299e-21)
(0.180567 -0.015615 6.02883e-20)
(1.08698 -0.000587532 1.3357e-21)
(1.11752 -0.162803 0)
(0.557027 0.269784 0)
(0.937191 -0.111133 2.8773e-21)
(-0.178628 -0.0447755 0)
(0.603025 0.0281068 1.96121e-21)
(0.602336 -0.417492 -2.9305e-21)
(0.239889 0.0484981 -1.08128e-19)
(1.12404 -0.232011 3.46278e-20)
(1.03588 0.36025 1.04961e-20)
(0.978211 0.017249 0)
(1.18166 -0.0045652 4.72863e-22)
(0.628525 0.0181754 0)
(0.975917 -0.0161227 -7.68432e-22)
(0.419564 -0.0246797 0)
(0.710519 0.124838 0)
(1.00709 -0.0180507 -4.30295e-21)
(1.42934 0.171889 -1.19706e-20)
(1.14014 -0.0370781 1.76049e-21)
(0.522113 -0.492802 0)
(1.13548 -0.158334 2.66898e-21)
(0.801102 0.372708 7.24592e-20)
(-0.0357768 0.0219173 1.12057e-21)
(1.23324 0.00313654 7.92815e-21)
(1.21791 0.0464536 -8.48973e-21)
(1.19943 -0.000223639 8.51938e-22)
(0.78477 0.0103589 -3.18176e-21)
(0.0659273 0.0175096 3.58078e-20)
(-0.0168764 -0.0625101 -5.19104e-20)
(-0.194651 -0.0455911 0)
(-0.223068 0.0905835 0)
(1.18388 -0.618861 3.06978e-20)
(1.16026 -0.0234285 2.8421e-22)
(0.883299 -0.464723 -4.07357e-20)
(0.96877 -0.0700944 -1.2604e-20)
(1.3581 0.197791 3.15071e-20)
(0.601034 0.417954 0)
(0.244859 0.411132 -1.18326e-19)
(0.592708 0.474157 0)
(-0.0392301 0.00912684 0)
(1.12435 -0.485171 0)
(-0.0441509 -0.0326558 -3.23787e-22)
(1.19753 -0.00650929 0)
(0.871771 0.225118 -1.1807e-20)
(0.590994 0.686589 2.02007e-20)
(1.24441 0.128877 -1.41662e-21)
(-0.0326032 -0.127292 -1.00815e-19)
(0.48198 0.0761304 2.11427e-20)
(0.451064 0.143577 -1.2975e-20)
(1.20225 0.0985897 0)
(1.35414 0.353835 3.18945e-20)
(1.21704 0.561441 4.54258e-21)
(0.165277 -0.0161212 -2.13262e-20)
(0.997542 0.114823 3.00705e-20)
(0.925402 -0.0219483 -3.87066e-23)
(0.902419 0.0312607 -2.09557e-22)
(-0.0153851 -0.0382809 0)
(0.647795 -0.657694 -3.09278e-20)
(0.612374 0.195075 0)
(0.0838457 -0.153553 0)
(-0.0467677 0.0482816 0)
(0.00937699 -0.155096 -3.83184e-20)
(1.24075 0.0117374 -9.11885e-21)
(-0.0315007 0.0346932 0)
(-0.0314807 0.0228872 0)
(1.44319 0.115653 -6.34616e-20)
(-0.0390414 -0.0920628 4.5528e-20)
(0.114105 0.23054 -1.02774e-19)
(0.390588 0.0140741 0)
(0.169613 -0.281825 8.21751e-20)
(1.07609 -0.243437 0)
(0.998272 -0.288672 0)
(0.00903814 -0.126906 9.53582e-20)
(1.1495 0.0434365 -1.33948e-22)
(1.12277 0.339249 2.96137e-20)
(0.264688 0.0266988 4.45513e-20)
(0.403904 -0.519228 -3.86531e-20)
(1.25818 0.0793913 0)
(1.21254 0.188587 2.09574e-20)
(1.21379 0.209288 -2.57427e-20)
(0.102045 0.0839741 -2.37111e-20)
(-0.0629295 -0.0687621 0)
(1.07134 -0.0575 -2.00105e-20)
(1.10335 -0.227118 -1.70198e-20)
(0.583165 -0.409572 0)
(1.0979 -0.153153 -2.6955e-20)
(-0.162829 0.0691187 0)
(0.587396 0.0313153 0)
(1.44889 0.0565315 4.45691e-20)
(0.987803 0.0293149 4.33756e-22)
(1.07154 0.738416 -1.88601e-20)
(0.225712 -0.381083 1.33812e-19)
(1.11018 0.0229427 4.87301e-22)
(1.20458 0.078718 -1.07017e-21)
(-0.0470427 0.0217461 2.81186e-20)
(0.782897 0.72835 3.15096e-20)
(1.35045 -0.37991 -1.28737e-20)
(0.00568744 -0.0353354 9.3201e-20)
(1.09566 0.0445167 0)
(0.104435 -0.0419829 -6.04988e-21)
(0.895808 -0.635868 2.64313e-21)
(0.895959 0.638099 -1.57063e-20)
(0.528642 -0.0411129 -5.82799e-20)
(1.14846 0.000744636 -4.07447e-21)
(1.07718 -0.0854296 7.2553e-21)
(1.14821 0.0451816 1.11412e-21)
(1.10481 0.122112 5.1878e-21)
(1.13237 -0.131269 0)
(0.90306 0.105655 1.37491e-20)
(0.883558 0.45674 0)
(1.20026 0.0671915 -2.15882e-21)
(1.16584 0.115943 1.3203e-21)
(0.750088 0.262901 0)
(0.520411 0.109101 1.03121e-19)
(0.888833 0.706911 -1.02269e-21)
(1.07526 0.289088 -2.2743e-20)
(1.04332 -0.0110453 1.24766e-20)
(0.413305 0.484703 0)
(1.29676 -0.480581 0)
(0.492588 -0.0192424 3.77376e-21)
(1.25844 0.500706 0)
(-0.0214183 0.0460544 -4.06496e-20)
(1.28423 -0.420921 -3.33819e-21)
(1.16013 0.50549 0)
(0.451755 0.210603 1.7185e-19)
(1.11901 0.313845 -1.14041e-19)
(0.81643 -0.645624 -2.69941e-20)
(1.15038 0.0444149 -2.21661e-21)
(0.912408 0.14938 7.71003e-20)
(1.08713 0.168492 5.51897e-20)
(1.06585 0.699315 1.61167e-21)
(0.904728 -0.442402 6.73918e-20)
(1.41349 0.189115 3.48636e-20)
(1.13151 0.0123132 -8.84006e-22)
(-0.00546807 -0.0654021 8.36419e-20)
(1.08158 -0.705611 2.23176e-20)
(0.871407 -0.723222 5.62074e-20)
(0.251741 -0.339419 0)
(0.972226 -0.149186 7.51553e-20)
(0.360775 0.300661 -4.45987e-19)
(-0.0888645 -0.0618681 2.49351e-20)
(0.241902 0.0286867 2.11199e-20)
(0.659729 -0.0622347 -6.91615e-20)
(1.0745 0.52457 0)
(0.991395 0.220844 8.32515e-20)
(1.08642 0.0329071 3.8834e-21)
(0.90541 0.437328 -9.34228e-20)
(0.780736 -0.726514 -8.91685e-21)
(0.92555 0.0203172 -5.00587e-20)
(0.973508 0.484798 0)
(1.09681 0.094764 -6.06989e-21)
(1.38082 -0.521324 1.20853e-20)
(1.2295 -0.347068 8.67351e-21)
(-0.301942 0.0618773 2.98294e-20)
(0.194208 -0.00394216 -1.83799e-20)
(0.975993 -0.120206 -5.95215e-20)
(0.350272 0.519125 0)
(0.912805 0.0134603 3.98856e-20)
(1.15152 0.632588 7.36046e-20)
(-0.0486069 -0.123075 1.36475e-19)
(-0.0661779 -0.0113118 -2.32428e-20)
(-0.0787 -0.132972 3.82762e-20)
(1.0975 0.0264219 -5.26795e-21)
(1.12513 -0.463283 0)
(1.06782 -0.739833 -4.58964e-20)
(0.696024 0.343969 0)
(0.0490445 -0.129327 -9.98886e-20)
(1.12883 0.0321185 3.3982e-21)
(-0.035445 -0.121746 -2.72501e-20)
(1.04758 0.0567942 -1.20713e-20)
(0.109671 0.0267711 5.27713e-20)
(0.842762 0.12343 0)
(1.39464 -0.00986457 5.08969e-20)
(0.0350934 0.0207212 -2.39809e-20)
(-0.279969 0.0202977 -3.54136e-20)
(-0.213488 -0.0113014 0)
(0.0684033 -0.0206687 0)
(1.3532 -0.00141397 -1.4344e-20)
(0.364473 -0.0141691 1.42284e-19)
(1.26612 -0.731506 -1.77741e-20)
(0.815143 -0.0392351 2.02687e-20)
(1.06985 0.250247 -3.21951e-20)
(0.368537 -0.562255 1.42038e-19)
(1.5339 0.278504 -3.18032e-20)
(0.0614474 -0.0945425 3.23748e-20)
(0.207113 0.298175 1.98879e-19)
(0.0815224 -0.0593387 -1.21363e-19)
(0.943544 -0.497705 -4.44572e-20)
(1.44538 0.385286 3.2238e-20)
(0.567097 -0.679085 5.01207e-20)
(1.10796 -0.0845413 -7.19834e-21)
(0.211661 -0.0521154 5.44461e-20)
(1.17525 0.287871 -4.55936e-20)
(0.658606 0.633828 -4.211e-20)
(1.33423 -0.627814 0)
(1.40945 0.515796 3.20014e-20)
(1.05426 -0.533256 -1.24475e-20)
(1.3809 0.602544 -9.13003e-20)
(1.17435 0.0338395 0)
(-0.050963 0.0493801 0)
(1.24439 0.724668 0)
(1.12836 0.0351194 -8.31158e-21)
(0.742079 -0.306359 -2.10666e-19)
(0.475541 -0.089046 0)
(-0.0563763 0.0355596 -2.38382e-20)
(1.02058 -0.24931 1.02472e-19)
(-0.366397 0.0552052 0)
(0.320914 0.0186343 1.24171e-20)
(1.13514 0.0367885 0)
(1.40516 0.271588 0)
(1.1812 0.0408772 2.3736e-21)
(0.361266 -0.298439 0)
(1.01318 0.150323 3.93743e-20)
(1.30075 0.284558 0)
(-0.0922869 -0.00698321 -4.4884e-22)
(0.812898 -0.401434 0)
(1.50521 0.338298 -4.79587e-20)
(1.23655 0.365095 2.65779e-21)
(0.836133 0.639706 -1.01633e-20)
(1.01021 0.158544 -9.19141e-20)
(0.969755 -0.207442 -4.98579e-20)
(1.44263 0.293198 2.82169e-20)
(0.978692 0.077294 0)
(0.563297 -0.0764621 0)
)
;

boundaryField
{
    FrontBack
    {
        type            empty;
    }
    Top
    {
        type            noSlip;
    }
    In
    {
        type            fixedValue;
        value           uniform (1 0 0);
    }
    Bottom
    {
        type            noSlip;
    }
    Out
    {
        type            zeroGradient;
    }
    circle
    {
        type            noSlip;
    }
}


// ************************************************************************* //
