/*--------------------------------*- C++ -*----------------------------------*\
| =========                 |                                                 |
| \\      /  F ield         | OpenFOAM: The Open Source CFD Toolbox           |
|  \\    /   O peration     | Version:  2412                                  |
|   \\  /    A nd           | Website:  www.openfoam.com                      |
|    \\/     M anipulation  |                                                 |
\*---------------------------------------------------------------------------*/
FoamFile
{
    version     2.0;
    format      ascii;
    arch        "LSB;label=32;scalar=64";
    class       surfaceScalarField;
    location    "36.6";
    object      phi;
}
// * * * * * * * * * * * * * * * * * * * * * * * * * * * * * * * * * * * * * //

dimensions      [0 3 -1 0 0 0 0];

oriented        oriented;

internalField   nonuniform List<scalar> 
1171
(
-0.945394
0.945394
0.767853
-1.06911
0.301261
-0.100623
-0.82092
0.921543
0.0546058
-0.0742834
-0.274172
0.348455
-0.767853
0.0768319
0.691021
0.900502
-0.198079
-0.702423
0.827798
-1.05211
0.224317
-0.348371
-0.0456468
0.394018
-0.00623457
0.597136
-0.590902
-0.6788
1.04722
-0.368419
-0.422655
1.00274
-0.174946
0.246833
0.0993014
-0.346134
0.969773
0.0329709
0.324099
-0.0772662
0.99348
-0.0237071
0.783014
-0.883636
-0.780704
0.609845
0.170859
0.148719
-0.827519
0.556135
-0.913554
0.357418
-1.07904
0.668053
0.410983
-0.641673
0.635438
0.0330361
-0.253459
0.220423
0.0251422
-0.653987
0.628845
0.460246
-0.505893
-0.855909
0.913448
-0.0575386
1.01392
-0.0204407
0.925726
-1.08841
0.162688
1.02804
-0.0141207
-0.694103
-0.0866013
1.28787
-0.878977
-0.408896
0.172132
-0.0794275
-0.398017
0.477445
-0.27552
0.185483
0.0900371
-0.595075
-0.474039
0.997983
-0.0722563
-0.0280526
0.876385
-0.848333
0.506835
0.781039
0.517709
0.015004
0.445242
-0.783705
-0.111229
0.894934
0.598515
0.251321
-0.849836
-0.0112074
0.683088
-0.67188
-0.50799
-0.571046
-0.38773
-0.700684
0.0193654
0.250026
-0.269391
-0.952889
-0.0367159
0.989605
0.36441
0.0296084
0.842401
0.0581005
-0.597331
-0.0443423
0.0411914
-0.824896
0.105641
0.988923
-1.09456
-0.407208
0.0272932
0.379915
-0.718006
-0.234883
-0.812175
0.917816
0.720064
0.327156
-0.575898
1.00096
-0.818109
-0.182853
-0.0802392
0.0122986
0.0679406
-0.453728
-0.0521653
-0.329575
1.04964
0.00890303
0.410807
-0.41971
-0.543048
1.14156
0.705694
-0.816923
0.376545
-0.0506284
-0.325916
0.781554
-0.781554
-0.911468
0.0469209
-0.321093
-0.69497
0.666917
-0.0423917
-0.147749
0.190141
0.879496
-0.00311048
1.06313
-0.811807
0.221046
-0.31976
0.0987138
0.942969
-0.100567
-0.669228
-0.0613655
0.730594
0.150687
-0.232759
0.082072
0.79443
-0.992508
-0.441533
0.310185
0.131347
0.679814
-0.654672
0.887591
-0.4035
-0.484091
0.49986
-0.694915
0.036886
0.658029
0.0931328
0.664809
0.0383557
-0.703164
0.143514
-0.0965932
-0.513097
0.105888
0.0370511
-0.902383
0.865332
-0.554685
-0.754834
0.0607314
0.491727
-0.0464852
0.275263
-0.833083
0.55782
0.424162
0.575838
0.600775
-0.559583
-0.385448
0.0120989
0.373349
0.545834
0.23572
-0.697576
0.686369
0.0937101
0.871262
0.00782887
-0.677057
-0.763443
0.800494
0.603443
0.127507
0.315852
-0.443359
-0.156843
0.570677
0.112411
0.769177
-0.967886
0.198709
0.661358
0.339604
-0.434362
0.703308
-0.575801
0.408497
0.147638
-0.0566483
-0.618388
-0.277865
0.896253
-0.119005
-0.662549
-0.615118
0.364962
0.250156
0.661115
-0.653286
0.306063
1.05184
0.0112928
-0.763443
-0.102976
0.0227372
0.705694
0.788334
-0.788334
0.841652
-0.826951
-0.0147007
-0.455187
0.87935
-0.194522
-0.318575
0.761707
-0.671127
-0.0905801
-0.955166
0.336778
0.112357
-0.709688
0.816923
-0.973766
-0.217186
0.16489
0.0522959
0.107211
-1.01121
0.903997
0.53424
-0.0165316
-0.290812
0.59624
-0.305428
-0.661201
0.768413
-0.156994
0.665129
-0.741529
0.0764003
1.05207
-0.607136
-0.444938
0.731686
-0.0672122
-0.0208534
0.0181211
0.00273229
-0.799176
-0.67708
-0.143841
-0.69497
0.577872
-0.550579
0.262413
0.562188
-0.824601
0.778144
0.16725
0.492305
0.507695
-0.156589
-0.656249
0.812838
0.905646
-0.136469
-0.731686
0.800494
0.181081
-0.43454
-0.00283618
-0.0169722
0.0198084
0.680961
-0.43844
-0.242521
0.691021
-0.0430358
-0.0119509
0.565111
0.115851
-0.0114957
0.00289348
0.00860221
0.00124553
-0.022099
0.170977
-0.221605
-0.945328
0.0406266
-0.144834
-0.0462092
0.141272
0.811988
0.742755
-0.166917
0.526097
-0.263684
-0.16616
0.387206
0.649908
0.0411128
0.231473
-1.05842
-0.973766
0.317925
0.666917
-0.169352
0.021603
-0.852614
1.01961
-0.166996
0.486775
-0.10686
0.79812
0.305085
0.34767
-0.0235713
-0.68045
0.68045
0.232972
0.661962
-0.0250267
0.435834
0.452418
0.0459633
-0.0487995
0.537445
-0.00320482
-0.661201
0.567703
0.194004
-0.000238371
0.0183595
-0.649908
0.148118
0.871493
0.0184705
-0.720338
0.701867
0.759443
-0.823302
0.0638587
-0.778144
-0.0453792
0.0611558
-0.0157765
0.0864462
-0.119422
-0.105302
0.224724
-0.0104835
-0.00101215
0.738808
-0.720337
0.973491
-0.0519478
-0.25021
-0.691384
0.941595
0.000557387
-0.000557387
0.176989
0.506983
0.420102
-0.927085
-0.182827
-0.560957
0.743783
-0.0148483
0.204989
0.383953
-0.233266
1.1056
-0.598615
0.882643
0.933956
-0.513853
0.189431
0.768413
0.593467
0.256398
0.65705
-0.662549
0.31955
0.0234422
0.0308895
-0.0543316
0.893224
0.198832
-1.09206
-0.56976
0.555639
0.544813
-0.56976
-0.593467
0.555639
-0.0177622
1.0562
-0.082705
-0.545834
0.462272
0.0835618
0.536755
0.708566
-1.24532
0.447505
0.658094
0.771378
0.489417
-1.2608
0.426084
0.507871
0.462272
-0.535693
-0.564615
-0.614948
-0.407153
-0.179341
-0.00693944
0.00693944
0.487459
0.558321
-0.965474
0.671928
-0.356077
-0.985821
0.378685
-0.700108
0.465225
-0.0652076
-0.848193
0.9134
0.451943
-0.150429
1.04365
-1.06238
-1.0179
0.192037
0.82586
0.552811
-0.270935
-0.281875
0.783446
-0.855702
1.05659
-0.868712
-0.18788
-0.193619
-0.774267
-0.198414
0.807793
-0.60938
-1.15667
0.963051
-0.477681
0.622343
-0.144662
-0.686016
-0.094243
0.780259
0.00540875
-0.00485136
0.422901
0.00579247
-0.928224
0.922431
-0.804983
0.648393
1.01138
0.242706
-1.25408
-0.00651941
-0.0171194
0.390468
-0.360705
0.0409451
0.880915
-0.946122
-0.737964
-0.922491
0.148224
-0.0855718
-0.903491
0.0347789
0.401281
0.124816
0.252395
0.300415
-0.679551
0.585308
0.484091
-0.998622
-0.913964
0.142232
0.259462
0.500098
-0.759559
0.00990892
-0.478502
0.580116
0.179327
0.179453
0.8642
1.15509
0.948665
-0.913886
0.0491095
-0.0491095
-0.0895614
-0.25764
-0.0132954
0.326
-0.00807508
0.304634
0.874109
-0.0110024
0.000518905
0.657117
0.342883
0.79739
-0.595075
-0.770694
-0.560727
-0.4981
0.4981
-0.206802
-0.114291
0.711881
-0.889964
0.178083
-0.502544
-0.538335
0.323047
-1.02373
-0.883587
0.695707
-0.57583
0.724054
0.683447
0.152323
-0.835771
-0.705389
-0.17863
0.823033
-0.644404
0.00947831
-0.00618632
0.0036181
0.00256822
-0.219273
-0.0383664
1.03493
0.772547
-0.38608
-0.386467
0.490671
0.743689
-0.510717
0.0123197
-0.28784
-0.0789798
0.835035
-0.756055
-0.340283
-0.118613
0.139432
-1.05835
-0.0337085
-0.737641
0.0743053
0.714363
-0.788669
-0.826693
0.0890524
0.666114
-0.784727
0.2385
-0.357922
-0.601546
-0.103843
0.371359
0.708817
-0.00550891
0.00266698
-0.00266698
-0.00404596
0.0769304
-0.0534882
-0.0171757
0.0061733
-0.47673
0.318539
0.818335
-0.772464
-0.0458709
-0.635333
0.709638
0.761453
-0.0953395
-0.653169
-0.173524
-1.11749
0.0206782
0.0284313
-0.55571
-0.851583
-0.915066
0.50617
-0.0553722
0.043387
0.0119852
-0.229257
-0.326453
0.391793
0.711722
-0.0590038
0.0127946
1.16219
0.54254
0.17441
-0.71695
-0.41552
0.186263
-0.0102933
0.004107
0.674424
-0.952289
0.00472985
-0.00472985
-0.749656
0.746632
0.00302392
-0.163124
-0.13162
-0.691247
0.224469
0.588369
-0.0602275
-0.869877
-0.37072
0.0664209
0.304299
0.64706
-0.692931
0.360504
0.255564
-0.616068
-0.177159
-0.668059
-0.12061
-0.207115
-0.146251
0.463541
-0.515706
0.205658
0.729752
-0.93541
0.49986
-0.126041
0.0706684
0.32398
-0.470231
0.596649
-0.0951498
-0.501499
-0.287167
0.306373
-0.0192062
0.6088
0.0631279
0.0933948
-0.311787
0.168875
0.142912
-0.206964
0.103988
-0.342979
-0.117016
-0.0850259
0.202042
0.848935
-0.166181
0.00305614
0.548837
0.298884
-0.684964
0.417009
-0.417009
-0.208796
-0.398578
-0.220879
-0.398578
-0.747914
-0.850578
0.179452
-0.179476
0.742555
0.0460706
0.0997383
0.609079
0.110619
0.123802
0.007047
-0.130849
-0.113055
0.628452
-0.934003
0.242619
-0.124295
0.107676
0.0166194
-0.739743
-0.172629
-0.63461
0.80902
-0.517232
-0.147229
-0.323002
-0.333991
-0.0809553
0.0809553
0.05467
0.00648579
0.14448
0.147375
-0.708539
0.0739289
-0.0934056
0.471328
0.528672
0.741788
0.0382316
-0.0153616
-0.02287
-0.298541
-0.571335
-0.607336
0.114423
-0.119494
0.00507159
-0.159961
-0.413725
-0.106456
0.694825
-0.567389
-0.172354
-0.134931
0.0457249
0.286873
-0.590137
-0.199755
-0.206669
-0.0149361
-0.482754
0.438835
0.0439189
-0.180459
0.293316
-0.864363
-0.532306
0.581769
-0.871024
0.693866
0.418714
-0.0284601
0.0515091
-0.023049
0.0167066
-0.636287
0.000197998
0.636089
-0.891174
0.643732
-0.733294
-0.238297
0.00934506
-0.00934506
-0.299468
0.387085
0.00338309
0.0284572
0.00977441
0.597934
0.684466
-0.485757
0.0114849
0.004506
-0.00183902
0.00567622
-0.00567622
-0.467562
0.53069
0.0143972
-0.0143972
-0.772581
-0.0112987
0.0167074
-0.545528
0.619457
0.656282
-0.653258
0.0716864
-0.0716864
-0.0592016
0.0104022
-0.00168045
-1.01862
0.573682
-0.455577
-0.00485136
0.595102
0.0172263
-0.612328
-0.70892
0.141531
-0.315795
-0.0141177
0.329913
-0.0397339
-0.0192699
-0.60556
-0.0307275
0.0284313
0.00549249
-0.000762645
-0.0036324
0.0036324
-0.132537
0.334579
-0.470185
0.138358
0.659033
-0.107871
0.000951115
-0.000951115
0.508214
-0.289721
0.00878768
0.0190863
0.000824856
0.537728
-0.827449
-0.598476
0.601532
-0.0684917
0.335672
0.77452
-0.00404596
-0.0849
0.10326
-0.636776
0.547741
-0.408574
-0.113818
-0.0254434
-0.0258377
-0.0325373
0.449213
-0.0870618
-0.414438
0.690755
0.00126322
0.00450952
-0.00450952
-0.122658
0.0148377
-0.573037
0.619107
-0.133763
0.509178
-0.179225
0.962239
0.717505
0.00549249
-0.830619
0.705554
0.126459
-0.0488761
-0.0775831
0.421073
0.0995224
-0.0116868
0.0645928
-0.052906
0.00805441
-0.00805441
-0.74713
0.0225769
-0.047887
0.0669732
-0.0865341
0.0865341
0.004506
-0.00309485
0.721806
0.149687
-0.317078
-0.0966462
-0.515684
-0.0084714
-0.0663625
0.0663625
-0.0820716
0.083103
-0.083103
0.025717
-0.025717
-0.354035
-0.080327
0.24067
0.0695154
0.0452629
-0.756572
-0.0715262
0.161552
0.0195293
-0.244254
0.0823821
-0.0823821
-0.462937
-0.0527687
0.231878
-0.0114551
0.0018601
-0.643196
0.660959
-0.0610057
-0.0210659
0.103989
-0.0935866
-0.0114166
-0.159342
0.170759
-0.15145
-0.206472
-0.0812937
0.0812937
0.0551907
-0.0551907
-0.0293199
-0.0943885
0.123708
-0.0315412
-0.188453
-0.0140532
0.0122142
-0.0902541
0.424833
-0.0257647
0.529202
0.00693873
0.00166348
-0.0503236
0.0503236
-0.733096
0.31881
-0.129378
-0.209073
-0.0236854
-0.015896
0.0177561
0.198955
0.0257689
0.00175573
-0.000930873
0.0841742
0.0302486
0.0557085
0.105844
-0.00501032
0.0178049
-0.000220324
0.00116298
0.00605552
0.00488977
-0.0109453
-3.52719e-06
0.00820195
0.0281286
-0.0281286
0.0486968
-0.0426887
0.0426887
-0.19183
0.00282646
0.0237606
-0.0751249
0.0176626
0.0780089
-0.0780089
0.242874
-0.236515
0.0850658
-0.0673675
-0.169148
-0.0161111
0.0161111
0.404907
0.253122
-0.520195
-0.0814188
-0.0380756
0.543265
0.0724475
-0.0591312
-0.424568
0.105779
-0.154013
0.170567
-0.0165541
-0.0477603
0.0477603
0.880298
-0.593664
-0.00992361
0.00992008
-0.0055787
-0.28692
-0.000720847
0.00524033
-0.0499232
-0.624535
0.568452
-0.6773
0.0149313
0.155761
0.0160389
0.0246065
-0.159592
-0.33351
0.258385
-0.0563819
0.0270621
0.169105
0.137268
0.296163
0.265164
-0.249125
0.00529288
-0.117815
-0.223191
0.0683995
-0.012691
0.160392
-0.135786
-0.0694108
0.153585
-0.421736
0.120273
-0.102611
0.0586931
-0.473131
0.175808
0.177565
-0.246976
0.00995768
-0.179269
0.178548
0.00437328
0.149212
-0.0282915
0.0493115
0.458903
0.0120175
0.0159247
-0.00762206
0.0411355
-0.239745
-0.202163
0.590311
0.17023
0.0616481
0.0771219
-0.0624865
0.00697688
-0.08456
-0.0305083
0.167053
-0.152122
-0.0166126
0.00229055
-0.108272
-0.0300573
0.00119229
0.252392
-0.0058543
-0.0866097
-0.313332
-0.0164435
0.218511
0.139402
0.179408
0.0577816
0.0979437
0.0683267
0.529608
-0.0111656
0.104064
0.0431993
0.0663672
-0.109566
-0.267073
-0.197183
0.0280354
-0.220739
0.285297
)
;

boundaryField
{
    FrontBack
    {
        type            empty;
    }
    Top
    {
        type            calculated;
        value           uniform 0;
    }
    In
    {
        type            calculated;
        value           uniform -1;
    }
    Bottom
    {
        type            calculated;
        value           uniform 0;
    }
    Out
    {
        type            calculated;
        value           nonuniform List<scalar> 10(1.21888 1.07245 1.17956 1.08418 1.19798 0.915024 1.04578 1.04088 0.625805 0.619457);
    }
    circle
    {
        type            calculated;
        value           uniform 0;
    }
}


// ************************************************************************* //
