/*--------------------------------*- C++ -*----------------------------------*\
| =========                 |                                                 |
| \\      /  F ield         | OpenFOAM: The Open Source CFD Toolbox           |
|  \\    /   O peration     | Version:  2412                                  |
|   \\  /    A nd           | Website:  www.openfoam.com                      |
|    \\/     M anipulation  |                                                 |
\*---------------------------------------------------------------------------*/
FoamFile
{
    version     2.0;
    format      ascii;
    arch        "LSB;label=32;scalar=64";
    class       volScalarField;
    location    "16";
    object      p;
}
// * * * * * * * * * * * * * * * * * * * * * * * * * * * * * * * * * * * * * //

dimensions      [0 2 -2 0 0 0 0];

internalField   nonuniform List<scalar> 
808
(
0.106681
0.00271674
0.0219472
0.107116
-0.205386
0.00358786
-0.0106275
0.0149946
-0.11632
-0.0367631
0.0261335
-0.128565
0.00997687
-0.00174113
-0.278446
0.00728933
-0.289661
0.00358036
0.0208524
-0.00769116
0.0245449
0.374756
0.0595797
-0.0152621
0.452016
-0.183051
-0.0573551
-0.000827809
0.00461175
0.00126235
0.00131669
0.00427565
0.00892945
0.0020641
-0.0951038
0.624913
0.000345004
0.00917258
0.00699102
0.00453172
-0.0663002
-0.0610542
0.0221798
0.0116651
-0.192476
0.0766418
0.00480137
0.0141617
0.00110563
-0.155396
-0.00657774
0.00526864
0.0311329
-4.56774e-05
-0.0974001
-0.00253174
0.00342863
0.0304974
-0.028627
-0.00939095
-0.277831
0.00300998
0.0253211
-0.189294
0.0175014
0.0329953
-0.248799
0.0122174
0.0152476
-0.253781
0.00980937
-0.280934
0.00966068
0.00805389
0.188632
0.0011509
-0.0276231
-0.07681
-0.00539112
0.307731
-0.133288
0.00394941
0.0208803
0.270332
0.00396229
-0.047295
-0.323364
-0.116922
0.0122749
-0.204349
0.0257591
-0.103762
0.247502
0.148712
0.028101
-0.258754
0.0119905
-0.12978
-0.114319
-0.228727
0.000349339
-0.0176321
0.0257286
-0.0426116
-0.138575
0.0459299
-0.203964
0.0106707
-0.00495383
0.0330657
-0.099955
0.328123
0.00369421
0.0245007
0.0051248
0.449958
-0.00333362
-0.238502
0.00657942
0.0434098
-0.29529
0.0228812
-0.00165992
0.0447407
0.102435
-0.0608702
0.0982781
0.0368824
0.0211736
0.0555562
-0.253272
0.0146455
-0.0661009
0.117078
0.0111262
-0.00587528
0.0241976
-0.0016692
0.00569696
-0.00791946
-0.293927
0.036028
0.0220418
0.00764535
-0.0401789
0.0453735
0.0841581
0.147659
-0.108396
0.00873717
0.00428809
0.339034
0.0155594
0.532406
-0.278977
-0.110238
0.00408527
-0.213709
0.0200855
-0.130781
-0.274307
-0.290105
-0.258537
0.00330142
0.0482594
0.0102162
0.00617234
-0.259184
0.0011771
0.0212125
0.0247011
0.150484
0.0434383
0.125077
0.00479746
0.0592781
0.0584017
-0.147641
0.0103697
-0.304305
0.0211437
-0.15107
0.000565311
0.260134
-0.27735
0.105848
0.00776787
-0.169143
0.016478
-0.116866
-0.27519
-0.0910217
0.00717846
0.072368
0.000565341
-0.281107
0.00483664
0.0209399
-0.00259065
0.069201
0.0531411
0.0158317
0.00951945
-0.275291
0.371878
-0.280276
-0.274281
-0.00362355
0.0250869
0.00428604
0.00147682
-0.350012
-0.263779
0.00377894
0.0154101
0.00571627
-0.286052
-0.0451171
0.00803437
0.0278996
0.0209321
-0.0954183
0.0146303
0.0139693
-0.000367344
0.0112929
0.11413
-0.280064
0.0474248
0.00223449
0.106923
0.00339471
0.00491153
0.00156515
-0.112332
0.0218725
-0.00397175
-0.00112536
0.0028513
0.00296313
0.00189339
0.000664957
0.00354675
-0.00435487
-0.00273905
0.000400743
-0.00178323
0.000406331
0.00324738
0.0294523
-0.279809
-0.00127182
-0.00147612
-0.165378
-0.00237378
-0.00534846
0.0173336
0.00109225
0.00644282
0.118251
0.0342501
0.00361058
0.00369255
0.0627151
0.0128498
0.0102097
0.0178055
0.0268963
0.0192842
0.0207392
0.0291725
-0.345894
0.270541
0.0052652
-0.063382
0.0107428
0.00558279
0.00431424
-0.243382
0.278835
0.0146793
0.0303667
0.0230495
0.0734648
-0.16172
0.0105654
0.0316243
0.0869744
0.0197611
0.0198498
0.00951973
0.0219936
0.0210579
0.0238003
0.0345419
0.0152632
0.0277622
0.0467322
0.0284421
0.0279586
0.0137662
0.01072
0.0298005
0.007415
-0.459281
-0.110203
0.0207297
0.0557644
-0.171566
-0.252099
0.0188801
0.00922763
-0.277332
0.119425
0.151232
0.00480956
0.0041712
0.0436385
-0.00135136
-0.195164
0.0175927
-0.00164906
0.0112435
0.00855423
0.0077494
0.0139607
0.0478656
-0.0185004
0.0124006
-0.270941
-0.0107243
0.0161052
0.0361692
0.0780861
-0.0033267
0.224908
0.0126376
-0.163602
0.546019
0.0483717
-0.00220134
0.0123501
-0.0761607
-0.0594678
0.0485572
0.0151693
-0.025148
0.0175921
-0.0628077
-0.2572
0.0552896
0.0957287
-0.0762263
-0.267714
-0.27749
-0.269978
-0.275458
0.0625175
0.011957
-0.000685837
-0.0409477
-0.0501059
-0.00307311
0.0153656
-0.000198253
-0.453224
0.0640668
0.0218252
0.0124721
-0.356234
0.0544594
0.00834016
0.102265
-0.290571
0.0453327
-0.0493423
0.0519489
0.03839
-0.271182
0.0163395
-0.307005
-0.00477262
0.0320006
0.0138875
-0.00373823
0.00711305
-0.120503
-0.29337
-0.00840752
-0.00821426
-0.0346961
-0.00686564
-0.0190483
0.0167251
-0.0306129
-0.0203126
-0.142937
0.033327
0.00383813
2.88709e-05
-0.337573
-0.139848
0.0521006
0.00686426
-0.164404
-0.0510928
0.424892
-0.311234
0.00329836
-0.164998
0.00600607
0.0314697
0.0102604
-0.0246809
-0.0185261
0.0178681
-0.0825371
-0.0182827
-0.00617775
-0.00806367
-0.00903035
-0.00849479
0.0133977
0.106937
-0.0133505
0.00251869
0.00404194
0.0106515
-0.0873897
0.0121647
-0.33747
-0.0485116
0.0294714
0.00295386
-0.258497
-0.291285
-0.0317553
-0.0699714
-0.0610627
0.0130386
-0.136853
-0.213229
0.22679
-0.268163
-0.405452
-0.347849
-0.0733925
-0.109163
-0.279654
0.349715
-0.0579551
-0.277097
-0.00472987
0.0307563
0.574926
0.000137578
0.00665462
0.0383319
-0.055793
-0.0248952
-0.279507
-0.279555
0.0413709
0.0529871
0.0530813
-0.232062
-0.259892
-0.229678
0.00141454
0.0070858
0.0813213
-0.0328441
-0.0513696
0.0679796
-0.0246486
0.0127765
-0.19763
-0.304177
-0.030037
-0.117517
0.0074107
-0.00319689
0.0686533
-0.0616414
0.00560903
-0.409275
0.451649
-0.279839
-0.272611
-0.0502523
0.00500206
-0.275879
-0.267799
0.112097
-0.288425
-0.228992
0.862041
0.00144152
-0.306171
-0.00957923
-0.13331
-0.00365308
-0.41236
-0.279568
-0.264404
0.00355291
-0.287243
-0.310123
-0.0236994
-0.0354191
0.0970428
-0.2613
0.0198728
-0.447558
-0.322646
-0.383117
-0.196462
0.00729546
-0.00381904
0.0950354
0.12123
-0.0564007
-0.267749
0.304909
0.0779147
0.0102967
-0.383887
-0.443667
-0.280999
0.0141943
-0.299973
0.0855556
-0.00531087
-0.034266
-0.25946
-0.200312
0.00333231
-0.273702
-0.291435
-0.00490571
-0.0224772
-0.149503
-0.0218691
0.025297
-0.332575
-0.284287
-0.111512
0.0919234
0.0118819
-0.285057
-0.287444
-0.290993
-0.285793
0.0298402
0.0907807
-0.00210602
-0.283909
-0.299236
0.0940304
0.013606
-0.222746
0.0203913
0.0216533
-0.330461
0.0181207
-0.233847
0.0219955
-0.299253
0.0119767
-0.00492097
-0.362108
-0.451015
0.00026408
-0.42651
-0.407015
0.0202075
-0.0699407
-0.273442
-0.000443417
-0.2702
0.0211681
0.0736121
0.055357
-0.290869
0.0513459
0.0348392
-0.445631
0.00780901
-0.285746
0.00594533
-0.281274
-0.503574
0.101615
0.270191
0.442472
0.00670236
-0.00627414
-0.0012903
-0.29093
0.644683
0.00592652
-0.215587
0.0160438
-0.0483913
0.0786398
0.484119
-0.367114
-0.0545526
-0.0504006
0.0236163
-0.00108707
-0.447362
-0.265416
-0.276333
-0.298772
-0.24534
-0.0106187
-0.322556
0.0702374
-0.267028
-0.307094
0.511756
0.58878
-0.311319
0.121884
-0.274536
-0.0357569
-0.111105
0.406742
-0.0853128
-0.276785
-0.0216047
-0.502053
-0.0341102
-0.197215
-0.0212576
-0.312462
-0.276814
-0.00213712
-0.00226203
-0.277682
0.453003
0.675283
-0.273611
-0.296904
-0.279216
-0.064111
-0.30349
-0.27909
-0.187177
-0.277056
0.754116
-0.338238
0.745403
-0.366235
0.331467
-0.268639
-0.00817758
0.172792
-0.494594
0.233221
-0.276883
-0.310064
-0.336944
0.870624
-0.272022
0.209457
0.151273
0.645589
0.1221
-0.327036
-0.286007
-0.200964
-0.000377258
0.0866661
0.52595
0.00108544
-0.0318802
-0.281664
0.119475
-0.104455
-0.320375
0.0160125
-0.309936
-0.135343
-0.152978
-0.318168
-0.00780173
0.0991132
-0.0175906
0.0681239
0.108998
-0.331457
-0.351743
-0.040226
0.00187828
-0.458869
-0.506165
0.176759
0.190445
0.0819984
0.669237
-0.0635379
-0.261967
-0.378517
-0.298688
-0.0453573
0.0814679
0.763059
-0.445176
0.381783
-0.0252005
-0.421681
0.148865
-0.0739247
0.389652
-0.159918
0.0039402
-0.284731
-0.0605652
0.204209
0.814346
0.33534
0.760103
-0.289425
-0.300445
-0.36812
0.166334
0.265823
0.0537224
0.381134
0.147948
0.498489
0.2753
-0.0299772
-0.165009
0.0311789
-0.301567
0.883404
0.412658
0.649984
0.512364
-0.263112
-0.281936
-0.277593
-0.272679
0.0392288
-0.368706
0.113898
0.596643
-0.292748
-0.000992423
-0.271864
0.182168
-0.327001
-0.364156
-0.178407
-0.287297
-0.299311
-0.283388
-0.293276
-0.139258
-0.366165
-0.112976
-0.214828
0.143317
0.658053
-0.219374
-0.271137
0.827108
-0.272755
0.29243
-0.233984
0.395042
0.0839947
-0.270946
-0.392078
0.444158
-0.247788
-0.318069
0.197215
-0.272135
-0.0396851
-0.294255
-0.116798
0.020296
0.572681
0.780563
-0.289581
0.228365
-0.295083
0.821859
-0.0266513
-0.310463
-0.0435256
0.764703
0.203921
-0.317712
-0.278201
0.458414
-0.211428
0.0348831
0.351618
0.251228
0.29836
-0.250643
-0.31702
0.689408
)
;

boundaryField
{
    FrontBack
    {
        type            empty;
    }
    Top
    {
        type            zeroGradient;
    }
    In
    {
        type            zeroGradient;
    }
    Bottom
    {
        type            zeroGradient;
    }
    Out
    {
        type            fixedValue;
        value           uniform 0;
    }
    circle
    {
        type            zeroGradient;
    }
}


// ************************************************************************* //
