/*--------------------------------*- C++ -*----------------------------------*\
| =========                 |                                                 |
| \\      /  F ield         | OpenFOAM: The Open Source CFD Toolbox           |
|  \\    /   O peration     | Version:  2412                                  |
|   \\  /    A nd           | Website:  www.openfoam.com                      |
|    \\/     M anipulation  |                                                 |
\*---------------------------------------------------------------------------*/
FoamFile
{
    version     2.0;
    format      ascii;
    arch        "LSB;label=32;scalar=64";
    class       surfaceScalarField;
    location    "16";
    object      phi;
}
// * * * * * * * * * * * * * * * * * * * * * * * * * * * * * * * * * * * * * //

dimensions      [0 3 -1 0 0 0 0];

oriented        oriented;

internalField   nonuniform List<scalar> 
1171
(
-0.945326
0.945326
0.777071
-1.08875
0.31168
-0.307229
-0.753482
1.06071
0.0546735
-0.0637732
-0.277438
0.341212
-0.777071
0.091396
0.685675
0.942866
-0.217196
-0.725671
0.831146
-1.03626
0.205113
-0.358263
-0.034261
0.392524
-0.00099822
0.606931
-0.605933
-0.501343
0.938042
-0.4367
-0.422036
1.00613
-0.174984
0.245257
0.0911465
-0.336404
0.98585
0.0202798
0.279955
-0.0346976
1.01325
-0.0273982
0.651327
-0.958556
-0.789201
0.611646
0.177554
0.329118
-0.83046
0.559697
-0.914898
0.355201
-1.08075
0.671142
0.409604
-0.645306
0.644308
0.0323435
-0.251424
0.21908
0.0303659
-0.63484
0.604474
0.469044
-0.503305
-0.839994
0.869534
-0.0295404
1.00435
0.00890234
0.902005
-1.05699
0.154985
1.01746
-0.0131177
-0.700435
-0.0887654
1.23675
-0.834314
-0.40244
0.17747
-0.0733292
-0.417271
0.4906
-0.273282
0.184843
0.0884382
-0.606059
-0.482692
0.957198
-0.0551937
-0.0253387
0.875319
-0.84998
0.518823
0.717932
0.533602
0.0263686
0.442675
-0.79051
-0.105201
0.895712
0.590716
0.226172
-0.816888
0.0457826
0.593907
-0.63969
-0.509889
-0.570857
-0.383384
-0.673605
0.0301086
0.244144
-0.274253
-0.944908
-0.0334253
0.978334
0.376847
0.0156762
0.847278
0.0955879
-0.606269
-0.0390376
0.0356715
-0.826182
0.123638
0.90558
-1.02922
-0.405367
0.0273388
0.378028
-0.712958
-0.231951
-0.694274
0.817912
0.646074
0.291969
-0.579564
0.995752
-0.821243
-0.174509
-0.0453094
-0.0759447
0.121254
-0.460559
-0.0427458
-0.307419
0.953493
-0.0157109
0.442631
-0.42692
-0.483935
1.07465
0.714961
-0.820163
0.393491
-0.0787747
-0.314716
0.754833
-0.754833
-0.920635
0.0383265
-0.315765
-0.692555
0.667217
-0.0307413
-0.143007
0.173749
0.884154
-0.00883474
1.03341
-0.807239
0.224957
-0.320679
0.0957221
0.983763
-0.136485
-0.678175
-0.0482067
0.726382
0.148887
-0.231099
0.0822124
0.798138
-1.01533
-0.441858
0.310326
0.131532
0.669427
-0.639061
0.860348
-0.389834
-0.470514
0.476964
-0.694236
0.036058
0.658178
0.166875
0.66907
0.0472642
-0.716334
0.133168
-0.0948413
-0.511903
0.106537
0.0361996
-0.907403
0.871204
-0.543693
-0.761553
0.0611172
0.501806
-0.0591303
0.275368
-0.833117
0.557749
0.424636
0.575364
0.599024
-0.563353
-0.37778
-0.031138
0.408918
0.536221
0.218612
-0.661718
0.707501
0.0845347
0.889534
0.00430584
-0.682481
-0.764861
0.801061
0.620863
0.108499
0.362812
-0.471311
-0.15504
0.523277
0.0706303
0.885053
-0.788111
-0.0969414
0.654445
0.341307
-0.430451
0.706443
-0.597944
0.409515
0.150182
-0.0585124
-0.677742
-0.185539
0.863281
-0.122884
-0.631949
-0.612566
0.36275
0.249816
0.661492
-0.657186
0.31047
1.01944
0.0139688
-0.764861
-0.120192
0.0748829
0.714961
0.784493
-0.784493
0.846286
-0.832056
-0.0142301
-0.453941
0.878576
-0.192814
-0.319089
0.763792
-0.669121
-0.0946715
-0.854723
0.17698
0.107365
-0.713633
0.820163
-0.975202
-0.179337
0.178368
0.000968609
0.11455
-0.980985
0.866434
0.550365
-0.0167628
-0.288981
0.594765
-0.305783
-0.645454
0.760004
-0.159751
0.718577
-0.852077
0.1335
1.12291
-0.654345
-0.468561
0.725981
-0.0708343
-0.00423931
0.00451179
-0.000272483
-0.80059
-0.914137
0.160655
-0.692555
0.575068
-0.547729
0.0553259
0.695008
-0.750334
0.779092
0.166235
0.491267
0.508733
-0.0401957
-0.67616
0.716356
0.879597
0.00545591
-0.725981
0.801061
0.180379
-0.431803
-0.0295461
0.0130501
0.016496
0.673404
-0.433753
-0.239652
0.685675
-0.0352159
-0.19556
0.559464
0.113941
-0.0148729
0.00103218
0.0138408
0.00514567
-0.00938498
0.125738
-0.204513
-0.944244
0.0384568
-0.143183
-0.0535988
0.128353
0.767232
0.742247
-0.166883
0.499934
-0.444608
-0.162372
0.387329
0.631485
0.0541896
0.228465
-1.06052
-0.975202
0.317717
0.667217
-0.159062
0.0160545
-0.805689
0.99334
-0.187651
0.482043
-0.104015
0.800369
0.305764
0.25751
0.0224443
-0.680961
0.680961
0.225357
0.670355
-0.0137152
0.456346
0.476885
0.00712183
-0.0366679
0.55068
-0.00031525
-0.645454
0.572125
0.191667
0.00221252
0.00229927
-0.631485
0.169825
0.823515
0.00397726
-0.714746
0.710769
0.760072
-0.821953
0.0618811
-0.779092
-0.0313715
0.043955
-0.0125835
0.0851024
-0.122208
-0.104652
0.22686
-0.00635877
-0.00851416
0.728733
-0.724755
0.898075
0.162635
-0.402267
-0.521883
0.92415
-0.00165777
0.00165777
0.14723
0.441835
0.650272
-1.09211
-0.196702
-0.54862
0.745322
-0.0201516
0.1939
0.382286
-0.233399
1.06979
-0.627957
0.765842
1.00732
-0.357043
0.189472
0.760004
0.58502
0.224882
0.644652
-0.631949
0.319039
-0.0274213
-0.0190609
0.0464822
0.892069
-0.0202767
-0.871793
-0.557622
0.544504
0.546059
-0.557622
-0.58502
0.544504
0.0077087
0.975648
-0.0775729
-0.536221
0.466512
0.0697085
0.523948
0.606514
-1.13046
0.495856
0.573935
0.626563
0.487543
-1.11411
0.489455
0.51786
0.466512
-0.493802
-0.523979
-0.61184
-0.548815
-0.157069
-0.00534468
0.00534468
0.598927
0.556662
-1.10548
0.734459
-0.371647
-1.03866
0.384312
-0.684064
0.452113
-0.017799
-0.948152
0.965951
0.453266
-0.0214174
0.913487
-1.09654
-0.97688
0.0738906
0.90299
0.262308
-0.108447
-0.153861
0.740002
-0.795196
0.985173
-0.97999
-0.00518321
-0.0150729
-0.773039
-0.150271
0.876431
-0.72616
-0.98721
0.972137
-0.667661
0.60889
0.0587713
-0.821771
0.0974127
0.724358
0.00311625
-0.00477402
0.42555
0.111368
-0.963116
0.851749
-0.770544
0.730348
1.02697
0.0913908
-1.11837
0.0500945
0.00206052
0.406858
-0.360171
0.0394922
0.933505
-0.951304
-0.659136
-0.804188
0.0311493
-0.152883
-0.980419
0.000429205
0.534161
-0.0342272
-0.0520795
0.314388
-0.635731
0.733144
0.470514
-0.969569
-0.895819
0.0798295
-0.110409
0.688535
-0.578126
-0.0144684
-0.769545
0.578838
0.181234
-0.0528036
0.96629
1.04603
0.954214
-0.953785
0.0454604
-0.0454604
-0.0795974
-0.170095
0.0616481
0.342386
-0.0246683
0.222294
0.951822
0.0088805
-0.0152393
0.658552
0.341448
0.79703
-0.606059
-0.753049
-0.598403
-0.514964
0.514964
-0.208164
-0.107601
0.653616
-0.953092
0.299476
-0.501205
-0.516193
0.348629
-1.02223
-0.974963
0.969779
-0.710003
0.741153
0.666746
0.194928
-0.861674
-0.539631
-0.178783
0.854369
-0.675586
0.0231407
0.00603519
0.00234203
-0.00837721
0.047796
-0.217891
1.00225
0.630585
-0.329455
-0.301131
0.476724
0.749271
-0.523915
0.0128664
-0.286148
0.105861
0.744971
-0.850832
-0.355489
-0.0630433
0.141315
-0.998195
0.126403
-0.758163
0.103668
0.750656
-0.854324
-0.893441
0.135278
0.716959
-0.780003
0.233631
-0.355839
-0.500887
-0.0387441
0.368687
0.737663
-0.0312199
-0.000896055
0.000896055
-0.0043125
-0.00252334
-0.024898
-0.0154049
0.0242854
-0.535115
0.335533
0.75376
-0.846244
0.0924842
-0.729159
0.832827
0.794554
-0.0775944
-0.714292
-0.17915
-1.11304
0.0208421
0.0246183
-0.429253
-0.864563
-0.842316
0.439875
-0.21962
0.25232
-0.0327008
-0.518982
0.089729
0.522554
0.713225
-0.0388909
-0.0147079
1.03694
0.504095
0.203887
-0.707982
-0.402476
-0.116506
-0.00355339
0.00958858
0.718214
-0.903753
0.00594679
-0.00594679
-0.713495
0.728383
-0.0148878
-0.454556
-0.102313
-0.703653
0.0692968
0.647059
-0.0515231
-0.882436
-0.167842
0.219101
-0.0512584
0.823364
-0.73088
0.342757
0.261
-0.603757
-0.146349
-0.725625
-0.128698
-0.2094
-0.0985454
0.4722
-0.514945
0.17537
0.73212
-0.90749
0.476964
-0.157957
-0.0616623
-0.0145181
-0.0840273
0.59579
-0.0939973
-0.501793
-0.284833
0.305853
-0.02102
0.583645
0.150814
0.0689286
-0.311974
0.170066
0.141908
-0.117708
-0.00248429
-0.296194
0.132226
0.00346236
-0.135689
0.892245
-0.336085
-0.118471
0.555542
0.276953
-0.606408
0.433616
-0.433616
-0.227472
-0.432435
-0.233378
-0.432435
-0.67849
-0.850182
0.181061
-0.274436
0.737435
0.0480612
0.163662
0.574001
0.108902
0.116949
0.0108021
-0.127751
-0.0553359
0.719362
-1.03382
0.511938
0.0058403
0.0576632
-0.0635035
-0.75318
-0.177892
-0.567986
0.771873
-0.526141
0.0291382
-0.113165
-0.339385
-0.0803516
0.0803516
0.0440995
-0.000144546
0.137791
0.249836
-0.747307
0.179321
-0.0132206
0.472536
0.527464
0.799277
0.0176371
0.0182564
-0.0358935
-0.296565
-0.585871
-0.521714
0.114114
-0.118907
0.00479324
-0.135668
-0.413087
-0.0701176
0.717177
-0.58978
-0.1634
-0.0468065
0.00933435
0.137121
-0.354879
-0.197362
-0.180662
-0.0238506
-0.476022
0.429752
0.04627
-0.00709639
0.294242
-0.865099
-0.53878
0.661841
-0.860474
0.714125
0.458407
-0.0320292
0.0576214
-0.0255921
0.101947
-0.634463
-0.00676368
0.641227
-0.894286
0.645737
-0.725335
-0.0640417
0.00661379
-0.00661379
-0.299107
0.442613
-0.0357551
-0.00115557
0.0187927
0.589643
0.580169
-0.677111
0.0118946
0.00268505
-0.0035811
0.004337
-0.004337
-0.501931
0.652745
0.0147058
-0.0147058
-0.779257
-0.00786318
0.0109794
-0.504522
0.683843
0.577769
-0.592657
0.0685841
-0.0685841
-0.000137924
-0.03653
0.0132382
-1.05148
0.582923
-0.534632
-0.00477402
0.605043
0.00624425
-0.611287
-0.710092
0.120313
-0.31584
-0.013259
0.329099
-0.0202489
-0.018642
-0.606979
-0.0274848
0.0246183
0.00576195
0.000184841
-0.00295569
0.00295569
-0.398059
0.26237
-0.455378
0.133548
0.663482
-0.133981
0.00323808
-0.00323808
0.508594
-0.0404914
0.00827156
0.0180045
-0.000437021
0.613213
-0.653705
-0.763788
0.645317
-0.0920188
0.326147
0.768026
-0.0043125
-0.0921201
0.0944194
-0.645038
0.551873
-0.266049
-0.105049
-0.0281402
-0.0258942
0.00285151
0.47657
-0.0857837
-0.416009
0.70529
0.00100768
0.00504733
-0.00504733
-0.193712
-0.148223
-0.570862
0.618923
-0.136681
0.508981
-0.207049
0.858377
0.854641
0.00576195
-0.756063
0.659081
0.0199306
-0.0267476
0.00681693
0.63822
0.0825286
-0.0120499
0.0666408
-0.0545909
0.00909419
-0.00909419
-0.743665
0.0231237
-0.0429498
0.0609543
-0.0860999
0.0860999
0.00268505
-0.00107442
0.746191
0.0773242
-0.317386
-0.0957002
-0.521966
-0.0268759
-0.066658
0.066658
-0.0360314
0.0808226
-0.0808226
0.0266886
-0.0266886
-0.35724
-0.073211
0.240188
0.0701384
0.032896
-0.72718
-0.0593863
0.160343
0.0200359
-0.242391
0.0808359
-0.0808359
-0.468101
-0.0468448
0.229799
-0.0107187
0.00280625
-0.65969
0.651981
0.0200029
-0.0560343
0.0296665
-0.0661965
-0.0122385
-0.156314
0.168552
-0.149447
-0.206392
-0.0811675
0.0811675
0.0546058
-0.0546058
-0.0285672
-0.0939017
0.122469
-0.0253632
-0.189111
-0.00351734
-6.37693e-05
-0.256651
0.519021
-0.0257458
0.427192
0.0079941
0.00584666
-0.0510373
0.0510373
-0.732098
0.317122
-0.12765
-0.208121
-0.0229785
-0.0172957
0.020102
0.195714
0.0311454
-0.00204109
0.00160407
0.0843907
0.029723
0.0557227
0.10462
-0.0183061
0.00359825
-0.000899463
0.00597924
0.00530532
0.00362583
-0.00893115
-0.00236228
0.00900177
0.0276988
-0.0276988
0.0493451
-0.042566
0.042566
-0.190106
0.0118259
0.0299398
-0.0756523
0.0175944
0.0770822
-0.0770822
0.241984
-0.236783
0.0873358
-0.0667996
-0.169983
-0.0155801
0.0155801
0.407763
0.250415
-0.519612
-0.0804491
-0.0384578
0.541312
0.00430326
-0.0609747
-0.463666
0.0923971
-0.152549
0.169533
-0.0169839
-0.0473592
0.0473592
0.860423
-0.590783
-0.00704722
0.00468494
-0.00574837
-0.285492
1.32406e-05
0.00493246
-0.0433317
-0.628964
0.568811
-0.664778
0.0145094
0.179216
0.0156208
0.0243486
-0.158297
-0.334549
0.258897
-0.0554742
0.026907
0.172416
0.133437
0.195419
0.263829
-0.248208
0.00549016
-0.113076
-0.22138
0.0675928
-0.0118701
0.160528
-0.136179
-0.0682425
0.152633
-0.403778
0.12139
-0.103796
0.0584895
-0.474499
0.174465
0.17806
-0.246302
0.00696069
-0.177321
0.177334
0.00375362
0.148879
-0.0278602
0.0492912
0.459303
0.0121187
0.0174796
-0.00335334
0.0350602
-0.238364
-0.203017
0.590838
0.168225
0.0615741
0.0766024
-0.063925
0.0645676
-0.0577507
-0.0302859
0.165996
-0.151487
0.0203311
-0.00711099
-0.104627
-0.0284411
0.0239293
0.251966
-0.00525862
-0.00162886
-0.310407
-0.00681614
0.217552
0.13977
0.177351
0.0567318
0.0967231
0.051884
0.537759
-0.00983061
0.104394
0.042156
0.066318
-0.108474
-0.269197
-0.196502
0.0265191
-0.222533
0.283888
)
;

boundaryField
{
    FrontBack
    {
        type            empty;
    }
    Top
    {
        type            calculated;
        value           uniform 0;
    }
    In
    {
        type            calculated;
        value           uniform -1;
    }
    Bottom
    {
        type            calculated;
        value           uniform 0;
    }
    Out
    {
        type            calculated;
        value           nonuniform List<scalar> 10(1.12242 1.01775 1.13582 1.06339 1.09406 1.06668 1.15559 1.0174 0.661088 0.665813);
    }
    circle
    {
        type            calculated;
        value           uniform 0;
    }
}


// ************************************************************************* //
