/*--------------------------------*- C++ -*----------------------------------*\
| =========                 |                                                 |
| \\      /  F ield         | OpenFOAM: The Open Source CFD Toolbox           |
|  \\    /   O peration     | Version:  2412                                  |
|   \\  /    A nd           | Website:  www.openfoam.com                      |
|    \\/     M anipulation  |                                                 |
\*---------------------------------------------------------------------------*/
FoamFile
{
    version     2.0;
    format      ascii;
    arch        "LSB;label=32;scalar=64";
    class       volVectorField;
    location    "16";
    object      U;
}
// * * * * * * * * * * * * * * * * * * * * * * * * * * * * * * * * * * * * * //

dimensions      [0 1 -1 0 0 0 0];

internalField   nonuniform List<vector> 
808
(
(0.891089 -0.0109248 0)
(1.02726 -0.035195 0)
(1.1895 0.0992505 0)
(1.07091 0.0104182 -2.26038e-21)
(1.47096 -0.299413 0)
(0.960184 -0.02847 0)
(1.15095 -0.059267 1.82814e-21)
(1.11431 -0.0328065 0)
(1.3482 -0.235671 2.31431e-20)
(1.23646 -0.0991044 -9.17892e-21)
(1.14699 -0.106098 4.81879e-21)
(1.37536 -0.269298 0)
(1.00129 -0.0360328 0)
(0.738927 -0.0272663 0)
(0.950809 0.0350627 1.95418e-20)
(1.07633 -0.0258444 0)
(0.839289 0.0270001 -6.19129e-21)
(0.999125 -0.0286665 -1.98195e-23)
(1.20217 0.0736889 0)
(1.12249 0.00261128 0)
(1.20201 -0.117829 -6.72563e-21)
(0.930284 0.124498 1.0859e-19)
(1.07549 0.0127566 -1.05409e-20)
(1.18143 -0.0369699 0)
(0.951079 0.183942 0)
(1.31112 0.0466234 -3.20975e-20)
(1.27891 -0.186932 7.04369e-21)
(0.9564 -0.0129793 -1.31857e-22)
(1.07503 -0.0188591 0)
(1.03696 0.0486381 -2.775e-22)
(0.991342 -0.0225618 4.96259e-25)
(1.1276 -0.0137975 0)
(1.01045 0.0222299 0)
(1.06459 -0.0167618 2.1117e-22)
(1.30965 -0.0865125 9.01588e-21)
(0.740552 -0.114182 1.10924e-19)
(0.875311 -0.0293315 -1.01144e-21)
(1.00309 0.0312193 4.69551e-22)
(1.19311 0.0466942 -5.58169e-22)
(1.07745 0.0055814 0)
(1.27099 -0.0755393 -1.80002e-20)
(1.27797 -0.141873 0)
(1.00686 0.00227081 -5.03703e-21)
(1.10994 -0.0542957 3.86703e-21)
(1.17778 -0.0164873 0)
(1.01034 0.0163276 -1.70609e-20)
(0.984866 0.0401243 2.86279e-22)
(1.25148 -0.259486 2.1456e-21)
(1.16877 0.0472309 -3.81135e-22)
(1.40428 -0.200403 -3.34342e-20)
(1.14505 -0.0647401 -2.46853e-21)
(1.15307 -0.0781275 0)
(1.12155 -0.00197756 4.4738e-21)
(1.10481 -0.0269755 0)
(1.31758 0.229543 5.50419e-21)
(1.062 0.0447123 -5.84211e-23)
(1.11295 -0.0282207 0)
(1.13104 -0.0669436 3.61607e-21)
(1.23928 -0.104115 9.85276e-21)
(1.141 0.0388532 1.09999e-21)
(-0.249067 -0.0824553 0)
(1.21512 -0.219324 -5.78779e-21)
(1.12746 -0.0465395 0)
(1.44188 -0.105765 -2.84953e-20)
(1.11095 -0.0614885 -5.23913e-21)
(1.04128 -0.0300122 -5.22162e-21)
(1.32926 -0.158097 2.82137e-20)
(0.621399 0.0161342 0)
(1.12228 -0.0759522 0)
(1.42873 -0.361408 0)
(0.885456 0.0302095 -7.74675e-23)
(1.22129 -0.152488 -3.72037e-20)
(1.00079 0.0497261 0)
(1.04831 -0.0493808 -9.76092e-22)
(1.12105 -0.338378 -5.75942e-20)
(1.13336 -0.0615162 -7.16045e-22)
(1.14797 0.0284891 8.28768e-22)
(1.31963 0.493052 2.51112e-20)
(1.11627 -0.0493479 0)
(1.01465 0.28169 -1.78356e-19)
(1.34037 0.0262356 1.84542e-20)
(0.724533 0.0217579 0)
(0.842063 0.033972 -3.60923e-21)
(0.967614 -0.110027 4.22697e-21)
(1.11515 -0.0624921 5.56332e-22)
(1.19831 0.0167882 2.0685e-21)
(1.26357 -0.243266 0)
(1.34832 0.281498 0)
(1.09121 -0.000304314 -5.64922e-21)
(1.39773 0.0773389 3.51725e-20)
(1.08169 -0.0194581 8.96722e-21)
(1.32167 -0.13678 -1.36442e-21)
(0.965354 0.0266918 1.62771e-20)
(1.00439 -0.0230989 0)
(1.11627 0.018587 1.0472e-21)
(1.29939 -0.106526 -7.7951e-20)
(0.760136 0.0123329 -1.00481e-21)
(1.33671 -0.0430723 0)
(1.33305 -0.10204 0)
(1.41924 -0.122165 -4.31168e-20)
(1.10143 -0.0580597 -1.74026e-22)
(1.1291 0.0106442 1.06079e-22)
(0.954152 0.0242637 7.62364e-21)
(1.19147 0.0131012 -9.74383e-22)
(1.34861 0.0309614 -3.21184e-20)
(1.00001 0.00664248 1.0479e-20)
(1.45143 -0.0112277 0)
(0.909218 -0.0134639 0)
(1.09243 0.0343388 -3.01997e-22)
(1.20017 -0.225835 -7.71003e-21)
(1.28694 0.0190471 1.51381e-20)
(1.04805 0.0478339 -1.19918e-19)
(1.15302 0.0434412 3.01861e-22)
(1.15649 0.0401737 4.14964e-21)
(0.798937 0.0127457 0)
(0.916617 -0.0467457 7.5558e-20)
(1.14608 0.0260562 6.23557e-22)
(1.42102 -0.27675 -1.62515e-20)
(1.10597 -0.0499172 -2.45944e-21)
(0.922469 0.0141892 2.55094e-21)
(-0.310835 -0.0253423 0)
(0.864877 -0.0159138 2.10256e-21)
(0.803711 0.0249717 0)
(1.0639 0.00195501 -7.29313e-23)
(1.01172 0.0290033 0)
(1.30965 0.318707 8.60385e-21)
(1.03388 -0.0561819 -2.94314e-20)
(1.265 0.0803656 3.15799e-21)
(1.15234 -0.0651923 0)
(1.09021 -0.0243145 0)
(0.548227 -0.0625468 0)
(1.10198 -0.0371283 -1.82268e-21)
(1.25943 -0.0566539 1.06079e-20)
(1.06605 0.113542 -3.10411e-20)
(0.850468 -0.0175082 0)
(1.10272 0.0253617 1.30305e-22)
(1.17711 0.0593596 1.20418e-21)
(1.17129 0.00833918 -2.01942e-22)
(0.979736 0.0336625 8.50129e-22)
(1.13031 0.00840531 -8.89308e-23)
(-0.00947201 0.032663 0)
(1.09729 -0.0226584 -1.00787e-20)
(1.21145 0.105303 1.10386e-21)
(0.717862 0.0251103 -9.66286e-22)
(1.25849 0.165248 2.28415e-21)
(1.08075 -0.00169387 2.79418e-21)
(1.05 0.0165926 1.46966e-20)
(0.990634 0.0266186 0)
(1.1502 -0.00714148 -2.05839e-20)
(1.02546 -0.0234389 0)
(0.931336 0.0321191 1.7514e-21)
(0.969245 0.282138 1.42795e-19)
(0.962019 0.0331238 0)
(0.818081 0.0991831 0)
(-0.121283 -0.00735497 -6.9594e-20)
(1.33661 0.130431 -1.37592e-20)
(0.666843 -0.0227902 0)
(1.44283 0.0338857 0)
(1.17083 0.0751397 0)
(1.34737 0.0883091 1.53048e-20)
(-0.036793 -0.10338 0)
(-0.0614453 0.049448 3.40382e-20)
(0.950025 -0.077054 7.31958e-20)
(0.99832 0.0403628 -1.47388e-22)
(0.863018 0.00162717 0)
(1.02455 -0.0372956 4.23183e-21)
(0.8947 0.0239702 0)
(0.699111 -0.0573831 -7.91117e-20)
(1.0185 0.0444711 1.11781e-21)
(1.10039 -0.0633709 1.9232e-21)
(1.09928 0.0103862 3.30115e-21)
(1.01421 0.069816 -1.0971e-20)
(0.758503 -0.0616853 -2.78172e-21)
(1.13668 -0.352522 6.23897e-22)
(0.914129 -0.0264587 0)
(1.0698 -0.000575035 -1.16536e-20)
(0.876418 0.00946928 -8.97435e-21)
(1.38273 -0.186461 2.07156e-21)
(0.692341 0.0306536 0)
(1.02012 -0.149872 0)
(1.09464 -0.0347235 1.62433e-21)
(1.38986 0.210134 1.10572e-20)
(1.11741 0.0204504 1.67076e-21)
(1.03736 0.0179536 1.90593e-20)
(0.692126 -0.0116734 -6.83822e-20)
(0.815011 0.00274417 1.70442e-20)
(1.13868 -0.0196575 1.48431e-21)
(1.40461 -0.0983608 -5.47375e-21)
(1.09783 -0.0497532 -3.56451e-21)
(1.33775 -0.0538487 4.69048e-21)
(-0.125185 0.0183164 5.08801e-20)
(1.28885 -0.0293184 0)
(0.595518 -0.0201843 0)
(1.06428 -0.0266767 -5.74e-21)
(1.10021 0.0130805 -2.11248e-22)
(0.0409405 0.0544286 0)
(0.876811 -0.0208122 1.10095e-22)
(1.10265 -0.02544 -2.09697e-21)
(0.976332 0.00411498 -6.72551e-22)
(1.07856 0.0386875 -6.43804e-21)
(1.00998 0.0206703 2.7507e-21)
(1.03367 -0.0369106 1.84977e-21)
(1.03705 0.0315928 0)
(0.306869 -0.0445657 0)
(1.0465 -0.0623761 0)
(1.147 0.102183 -3.06213e-20)
(-0.0356986 -0.113678 4.45686e-20)
(1.06299 0.00836671 4.80346e-24)
(1.1867 0.0948263 0)
(0.753629 0.0184784 -1.52353e-21)
(1.14727 -0.0533263 3.89524e-22)
(-0.010574 -0.0386028 -1.38944e-19)
(0.798313 -0.026752 -4.99483e-20)
(0.610837 -0.0201686 0)
(1.01057 -0.0606021 0)
(0.927276 0.0453399 2.79356e-21)
(0.987718 -0.120828 5.27978e-21)
(1.27836 0.394316 1.5562e-21)
(1.10455 -0.0321739 -6.20936e-23)
(1.12205 -0.0390948 -4.05692e-21)
(1.02361 -0.0427364 0)
(1.36178 0.418865 -4.22286e-20)
(0.643033 -0.0213857 0)
(0.803449 -0.0223499 -1.51091e-21)
(1.03454 -0.000949717 2.66103e-22)
(0.55594 0.0149707 0)
(1.09998 -0.00620979 0)
(0.0452702 -0.0640295 -4.47775e-20)
(1.08364 -0.00364363 -9.40374e-21)
(0.741219 -0.00321392 3.04197e-22)
(0.991272 -0.00222717 0)
(0.533603 -0.0130123 0)
(0.765481 -0.0108712 -9.17814e-22)
(0.529401 -0.00935962 -4.21009e-22)
(1.32396 0.046183 3.24704e-22)
(1.19631 0.0621972 -3.44922e-21)
(0.71393 0.00449943 -8.46179e-23)
(1.08148 -0.00956988 -1.19912e-22)
(1.13148 -0.0340906 5.85118e-23)
(0.529333 0.0123748 1.06217e-21)
(1.12996 -0.0199401 2.0156e-22)
(1.12314 -0.0160203 0)
(0.97956 -0.0312171 0)
(0.500538 0.00805358 0)
(1.0203 0.0028536 0)
(1.13556 -0.00805507 5.61409e-23)
(1.06654 -0.0157892 0)
(1.0937 -0.00481905 0)
(1.06353 0.00662411 0)
(1.10923 0.0101969 0)
(-0.0197922 -0.0393694 4.34356e-20)
(1.21584 0.00048437 -7.9185e-23)
(1.11608 0.0100142 0)
(1.37799 0.0407684 2.53982e-20)
(1.16709 0.0118474 -1.05235e-22)
(1.1027 0.0495924 -7.30868e-22)
(1.16463 -0.0118957 2.94224e-21)
(1.15485 0.013019 0)
(0.555503 -0.0163037 2.49586e-21)
(1.05116 0.0426477 1.06704e-20)
(1.18199 0.00985447 0)
(1.15549 -0.0464484 -4.88341e-22)
(1.16065 0.00540194 8.35616e-22)
(0.493943 0.0866886 -9.72418e-21)
(1.11915 0.0458153 2.35158e-21)
(1.18433 -0.0475644 -2.41904e-21)
(1.00215 0.000501589 0)
(1.19831 0.0229481 -1.25944e-20)
(1.12119 0.00556394 -2.9164e-21)
(0.815975 0.0468058 4.22029e-21)
(0.909954 0.0819934 0)
(-0.0232231 -0.020981 0)
(0.97752 0.11349 -1.72877e-20)
(1.12311 -0.0263222 0)
(1.29459 -0.0589455 2.31074e-20)
(1.14255 0.00578672 6.19783e-22)
(1.1429 -0.0443177 2.32552e-21)
(1.13554 0.00978681 -6.48933e-22)
(1.36713 -0.0736357 1.15127e-19)
(1.01717 -0.325343 5.81472e-20)
(1.12901 -0.0287599 -6.17689e-22)
(0.984021 0.0843875 0)
(0.908937 0.025026 0)
(0.900454 0.00219593 -2.44244e-20)
(1.22115 -0.00921428 -3.37553e-20)
(1.16836 -0.0243749 0)
(0.656843 -0.063922 5.85757e-21)
(0.309098 -0.0681907 0)
(0.821912 0.0609909 4.3885e-21)
(0.893936 0.00836223 -6.65519e-21)
(0.803945 0.0287639 -1.60576e-21)
(1.16713 -0.00697185 0)
(1.1975 0.0152155 -7.22945e-22)
(1.15034 0.0429865 3.57695e-21)
(0.774237 0.0732049 -7.38635e-21)
(1.18807 -0.019676 -2.69517e-21)
(0.892832 0.104851 0)
(1.09202 0.0712872 0)
(1.10487 0.0098091 4.33732e-21)
(0.849566 0.0543071 -4.4331e-21)
(1.22605 0.00730466 4.32942e-21)
(1.13419 -0.0196784 -1.68666e-21)
(0.980563 0.0429794 5.95666e-22)
(1.11496 -0.0178578 0)
(0.404954 -0.136673 1.29694e-20)
(1.32766 0.0863725 -2.3369e-20)
(0.964184 0.0768805 -5.03914e-21)
(0.0367664 0.0927475 1.02816e-20)
(1.43001 -0.161807 2.4665e-20)
(0.853637 -0.0409083 6.43678e-20)
(1.22513 -0.00435058 -4.43909e-21)
(1.12054 -0.0174003 -3.52169e-22)
(-0.0511629 -0.122226 -7.60217e-21)
(0.999503 -0.00693926 0)
(1.03391 -0.0865222 -1.58903e-20)
(0.859808 -0.0321269 1.11779e-21)
(1.09153 -0.0555528 1.1594e-21)
(0.768093 0.0298233 -1.28701e-21)
(0.530045 -0.00979292 -5.78058e-22)
(1.40855 -0.392599 -1.49843e-20)
(1.11503 0.0536508 0)
(1.01807 -0.0128242 2.82587e-22)
(1.12919 0.0434329 -1.01212e-21)
(1.27009 -0.0575377 0)
(0.850967 -0.00380541 -3.21006e-21)
(1.13076 0.0420328 1.4524e-21)
(0.71337 0.0153229 1.953e-20)
(1.16111 -0.0368093 1.07204e-20)
(0.923383 0.013403 1.84713e-21)
(-0.0369989 -0.0555106 0)
(0.359842 0.256669 9.96988e-21)
(1.13503 0.0475799 0)
(0.93648 0.153935 -1.11561e-21)
(0.865227 0.131446 0)
(1.13127 -0.0033138 -1.64576e-21)
(1.01631 0.0263934 0)
(1.12761 -0.0225872 0)
(1.40765 -0.142965 2.21012e-20)
(0.795517 -0.0862418 0)
(1.15234 -0.130324 1.63038e-20)
(1.07259 -0.0121531 3.78555e-23)
(1.05039 0.0489471 1.21627e-21)
(1.27123 -0.0290051 -1.3408e-20)
(1.24152 0.120838 -7.38045e-21)
(1.16908 -0.019688 1.6549e-20)
(1.16376 0.0515971 0)
(1.20348 -0.0747603 0)
(1.13306 0.0532898 1.07487e-21)
(1.23079 -0.0135442 0)
(1.41035 0.202684 -2.74619e-20)
(0.72176 -0.0400275 1.35857e-21)
(1.02743 0.017423 1.85873e-20)
(1.26845 0.0436133 -4.3647e-22)
(-0.0123389 -0.00785017 0)
(-0.0277204 -0.0666477 0)
(0.0817028 -0.0136086 -3.91409e-20)
(-0.0431032 -0.123835 0)
(0.665896 -0.0876342 -1.29606e-20)
(1.1762 0.0446043 -5.8432e-22)
(1.16577 -0.0932568 -6.99654e-22)
(1.28171 -0.0901008 -1.68106e-21)
(1.22276 -0.0301814 0)
(0.719258 0.000744385 1.3312e-22)
(1.16789 0.0528206 0)
(1.08743 -0.013722 -1.20784e-22)
(0.488686 -0.108971 0)
(0.735364 -0.105145 -4.2043e-22)
(1.13972 0.0467157 0)
(1.12083 0.024026 0)
(0.804303 0.0545203 6.55824e-20)
(0.642617 -0.149277 -1.7087e-21)
(0.923566 -0.0170167 6.98148e-22)
(1.01346 0.0178235 -8.46235e-21)
(0.15033 -0.10108 0)
(1.1738 -0.072583 -2.13377e-20)
(1.20818 0.0773919 -7.73102e-21)
(1.10584 -0.0586349 -1.59377e-22)
(0.777835 -0.128001 4.64568e-21)
(-0.0484615 -0.0846328 -9.36652e-20)
(1.14334 0.0536452 0)
(-0.0364935 0.042508 0)
(1.16262 0.0714063 6.7129e-23)
(0.567659 -0.115491 -5.00008e-21)
(1.09992 0.0436383 -5.12924e-21)
(1.11712 -0.0460066 0)
(1.15075 -0.0923679 3.9475e-22)
(1.24087 -0.0800103 1.96582e-20)
(0.510259 -0.0563644 -8.74052e-21)
(1.15182 -0.0371502 1.61777e-21)
(1.1847 -0.0846009 1.2654e-22)
(0.0771586 0.155056 1.00356e-20)
(1.26025 -0.121626 2.17031e-21)
(1.12709 0.0470264 0)
(1.15437 0.049978 0)
(1.21354 -0.0506207 5.65839e-21)
(1.16148 0.0849103 6.98711e-21)
(0.627201 -0.0678944 -4.17699e-20)
(1.19321 -0.12798 -1.33385e-20)
(1.10906 0.0551528 1.26606e-21)
(0.4852 -0.00127174 3.78879e-21)
(0.337514 -0.0932879 -1.17904e-19)
(-0.177268 -0.0736919 2.60591e-20)
(1.17308 0.182185 -6.63945e-21)
(1.22961 -0.497521 4.67991e-21)
(1.41823 0.0777699 -2.13836e-20)
(1.22672 -0.0387179 -6.70543e-21)
(0.936162 -0.233612 9.38568e-20)
(-0.182468 0.0079828 0)
(1.12786 -0.0233026 -2.58763e-22)
(0.145682 0.245156 -2.25204e-20)
(1.15364 0.0655716 -5.80884e-23)
(1.14937 -0.00930925 5.60097e-21)
(1.08493 0.0379419 0)
(0.750063 -0.111078 0)
(1.17635 -0.0542077 0)
(1.19715 0.149488 -8.96843e-22)
(1.27136 -0.0177413 -3.19906e-20)
(1.16488 -0.0546729 -4.71987e-21)
(0.50188 0.00740033 0)
(0.666651 -0.00269649 0)
(0.671459 0.00382738 4.48521e-22)
(0.495034 -0.00781995 0)
(1.1392 0.0290706 0)
(1.021 -0.0128427 2.3157e-20)
(0.377907 0.0434784 0)
(0.926924 0.0256509 0)
(1.0917 -0.0290846 0)
(1.17479 0.186148 -2.28217e-21)
(1.26077 0.0572026 1.47727e-20)
(0.966931 -0.031792 3.83427e-21)
(1.27838 -0.404076 -1.02503e-19)
(0.593485 -0.022676 7.33965e-21)
(1.28371 0.0462683 3.70231e-21)
(1.25718 -0.075767 0)
(-0.472684 0.0405945 0)
(-0.253863 -0.0228295 0)
(1.17419 -0.0306723 -8.52531e-21)
(1.31796 -0.297482 -2.19146e-20)
(1.31456 0.139014 0)
(1.08731 0.0464248 -3.63117e-21)
(0.261274 -0.117816 0)
(1.50836 -0.186105 6.8726e-20)
(0.412308 0.519584 1.11073e-19)
(0.251335 -0.0506727 0)
(1.08288 -0.280076 1.10025e-19)
(0.441348 0.0395083 0)
(-0.314331 0.0287261 1.49395e-20)
(1.3444 0.117986 0)
(-0.0609018 -0.0709688 -2.86782e-21)
(0.983485 -0.0493962 0)
(1.27329 -0.0670319 -1.03252e-20)
(-0.128001 -0.0571133 -7.46581e-21)
(1.12715 -0.0264964 -8.33331e-22)
(1.17305 -0.142433 -5.99824e-21)
(0.571094 -0.514646 -9.16402e-20)
(1.14472 0.0183954 1.32668e-22)
(1.19559 -0.133516 3.22026e-21)
(1.18187 0.246594 -1.67874e-20)
(1.15666 -0.0682028 -6.50384e-21)
(1.16547 -0.00972036 -1.42395e-21)
(-0.162694 -0.157251 -5.51629e-20)
(0.0356754 0.0534047 -7.63347e-21)
(1.26761 0.0414719 1.58365e-21)
(1.0581 -0.051306 0)
(0.491294 -0.129184 -6.74732e-21)
(1.39268 -0.448588 7.6881e-20)
(0.901091 -0.0878161 -5.45282e-20)
(1.42693 0.143258 8.09981e-20)
(1.08322 -0.0545606 1.82412e-22)
(1.21778 -0.132713 2.69338e-22)
(1.06337 -0.00723862 0)
(1.18739 -0.0177016 0)
(1.29682 -0.0720122 7.31038e-21)
(1.08621 -0.020613 -4.51901e-21)
(1.19475 -0.128883 7.01725e-21)
(1.0908 0.0415603 -2.93726e-21)
(1.45438 -0.0336951 -5.32873e-20)
(0.451326 0.0294649 0)
(1.28231 -0.111911 -8.21494e-21)
(1.34362 0.113983 0)
(1.10707 0.0511605 -1.09396e-21)
(1.14251 0.025497 0)
(1.04323 -0.0101321 1.12886e-20)
(1.23168 0.0367303 1.74098e-20)
(1.12846 -0.0638292 0)
(0.0472549 -0.0302237 1.47473e-19)
(0.882993 -0.211982 -7.36152e-20)
(1.314 -0.0346508 -3.40404e-20)
(-0.105158 -0.0641137 4.03013e-20)
(1.19821 0.0387719 4.84427e-22)
(0.844492 -0.0496336 -1.23515e-21)
(-0.0987839 -0.0361031 -4.20234e-20)
(-0.0246222 0.00612848 -2.69106e-20)
(1.01777 -0.0305208 0)
(-0.026714 -0.0312968 0)
(1.24731 0.105745 0)
(0.111515 -0.103208 0)
(1.11942 -0.0283044 0)
(0.124159 0.0278495 0)
(1.10987 0.0568506 0)
(1.18538 0.202109 0)
(1.29927 0.102238 -3.43397e-21)
(0.567766 -0.2826 -2.03792e-20)
(-0.172175 0.0464744 0)
(1.10393 -0.109557 5.6741e-20)
(1.24987 0.0102671 2.51703e-22)
(1.38537 0.0766355 0)
(-0.0369923 -0.0388922 0)
(1.16027 0.0159421 5.58534e-21)
(1.17082 -0.00125541 -2.75921e-21)
(1.16894 0.388412 0)
(0.217052 -0.0846095 5.46055e-20)
(1.1206 0.0601462 8.43794e-22)
(0.224014 -0.0515112 -5.02265e-20)
(-0.0613335 0.0497743 -3.32744e-20)
(-0.0328993 0.0491594 8.56367e-20)
(0.566069 0.177406 3.208e-20)
(1.06138 -0.0630708 1.16231e-21)
(1.12324 0.0606164 2.49708e-21)
(1.02278 -0.00773293 0)
(1.07012 -0.072713 -2.07887e-20)
(1.22987 0.0854839 -1.58773e-20)
(-0.00891363 -0.0264555 9.67965e-20)
(0.980761 -0.0721591 -5.89163e-20)
(0.608105 -0.0544056 1.22524e-20)
(1.1239 -0.00759209 -2.28977e-21)
(0.0661142 -0.0311208 3.14784e-20)
(0.233846 -0.0387923 -4.49867e-20)
(0.365333 -0.0672516 -4.94922e-20)
(1.1663 0.101366 2.37964e-21)
(-0.052828 -0.0327192 0)
(0.955657 0.0169061 8.06858e-21)
(1.21371 -0.171346 -6.2992e-21)
(1.17404 -0.124791 6.0736e-21)
(1.3006 -0.0122961 0)
(1.51431 -0.241036 6.7308e-20)
(1.10152 0.0130433 -4.31002e-22)
(-0.0120721 -0.0351157 -3.26276e-20)
(0.302815 0.0644318 0)
(0.908615 0.0170466 9.83024e-22)
(1.13053 0.028026 -1.60234e-21)
(0.556311 -0.0216605 1.4133e-20)
(1.16453 0.014338 -1.85513e-21)
(1.11694 0.0507337 0)
(1.11983 -0.177326 -1.38495e-20)
(-0.0726566 -0.0998571 -6.28697e-20)
(1.32652 -0.0288802 2.6324e-20)
(1.10456 0.17604 -8.91592e-21)
(1.10303 0.0472458 3.35933e-21)
(-0.0373995 -0.0509378 1.45308e-20)
(-0.0264288 0.0367333 -6.48698e-20)
(0.760578 0.00690674 0)
(0.874584 0.206211 0)
(1.15121 0.097934 -1.26766e-20)
(1.05197 0.06963 1.07621e-20)
(1.09238 0.00629763 0)
(0.456628 -0.0922016 4.81405e-20)
(0.738366 0.0837262 -1.19089e-20)
(1.09798 0.107236 0)
(1.09484 0.0448045 0)
(1.38953 0.17634 0)
(1.16379 0.0580489 0)
(1.23234 0.0504655 1.47594e-21)
(-0.0430816 0.0463617 3.63429e-20)
(1.15461 0.0425346 3.7843e-21)
(1.39576 -0.212467 -7.72159e-20)
(1.2751 0.0705497 -2.50462e-21)
(-0.0376252 0.00204607 0)
(1.17556 -0.181187 0)
(0.665536 0.0010299 6.43801e-22)
(0.540948 0.00790387 -6.08792e-20)
(0.0742819 0.0354001 4.92922e-20)
(0.950521 -0.013131 -3.30376e-22)
(0.728922 -0.270524 0)
(0.659144 -0.091804 0)
(1.20935 0.0704582 0)
(0.540668 0.514152 2.33793e-20)
(-0.0179045 0.0188729 -3.00476e-20)
(1.10313 -0.0086498 -8.04442e-22)
(-0.0185898 -0.0604507 6.14972e-20)
(1.11403 -0.0206478 1.69713e-21)
(1.17414 0.314192 3.20185e-20)
(1.11523 -0.0940164 7.39562e-21)
(0.2119 -0.0751041 7.21044e-20)
(1.03246 -0.0244385 3.04254e-21)
(1.16927 -0.189045 0)
(0.560669 0.271649 0)
(0.971531 -0.0288209 1.76841e-21)
(-0.182021 -0.00905835 0)
(0.604176 0.0293825 7.90361e-22)
(0.597449 -0.413561 -2.91029e-21)
(0.241982 0.0490074 -1.14775e-19)
(1.1216 -0.230502 3.25201e-20)
(1.03925 0.364531 9.77957e-21)
(0.977988 0.0200061 0)
(1.20344 -0.0491723 1.1983e-22)
(0.667746 -0.00339054 0)
(0.977532 0.011047 -5.54784e-22)
(0.413456 -0.0226743 0)
(0.710817 0.131263 0)
(1.00138 -0.01966 -1.20011e-21)
(1.43623 0.168143 -1.54257e-20)
(1.11196 -0.0267534 1.41342e-21)
(0.517943 -0.487822 0)
(1.13311 -0.159356 2.14145e-21)
(0.803573 0.378459 6.90994e-20)
(-0.0371512 0.0220123 1.20744e-21)
(1.22313 -0.00854397 1.1502e-20)
(1.2138 0.0391986 -1.35444e-20)
(1.14669 -0.00663056 6.27357e-22)
(0.789221 0.00467304 7.34041e-23)
(0.0656036 0.0180915 3.86186e-20)
(-0.0176777 -0.0344652 -5.43657e-20)
(-0.199123 -0.0191535 0)
(-0.224357 0.119801 0)
(1.176 -0.614715 3.04815e-20)
(1.15748 -0.0261272 1.38949e-21)
(0.87635 -0.461248 -4.06096e-20)
(0.974196 0.0443902 -1.70509e-20)
(1.36734 0.19615 3.58944e-20)
(0.604641 0.420955 0)
(0.246482 0.416038 -1.13067e-19)
(0.595395 0.481551 0)
(-0.00418985 0.0228024 0)
(1.11854 -0.481628 0)
(-0.0483926 0.000501464 -4.28229e-22)
(1.20279 -0.0122276 0)
(0.923362 0.262733 -2.94684e-20)
(0.595158 0.693037 2.04794e-20)
(1.29793 0.202995 7.72678e-21)
(-0.0328985 -0.0994024 -1.01603e-19)
(0.723403 0.220258 -4.39383e-22)
(0.454574 0.144635 -1.37895e-20)
(1.20317 0.0943648 0)
(1.36108 0.35385 3.81992e-20)
(1.22287 0.565167 9.45278e-21)
(0.165536 -0.0150429 -2.31674e-20)
(1.01127 0.120977 3.38992e-20)
(0.9248 -0.000120613 -1.26222e-22)
(0.90446 -0.00183169 1.1681e-22)
(-0.0124234 -0.0313525 0)
(0.643061 -0.649471 -3.05787e-20)
(0.612994 0.202437 0)
(0.0615869 -0.13118 0)
(-0.0499616 0.0612641 0)
(0.000658355 -0.122339 -3.83137e-20)
(1.23545 0.00328924 -1.32032e-20)
(-0.0277801 0.0533044 0)
(-0.0362771 0.0447134 0)
(1.44421 0.113049 -7.80958e-20)
(-0.0368744 -0.0748621 4.5966e-20)
(0.114909 0.235191 -1.00005e-19)
(0.39335 0.0161464 0)
(0.168195 -0.275485 8.11774e-20)
(1.06615 -0.241622 0)
(0.995114 -0.285468 0)
(0.00194969 -0.10115 9.56692e-20)
(1.14899 0.0382408 1.742e-23)
(1.12676 0.342402 2.65099e-20)
(0.266304 0.0273275 4.74889e-20)
(0.400649 -0.513338 -3.83092e-20)
(1.2851 0.0723995 0)
(1.22257 0.190772 2.29224e-20)
(1.22156 0.209285 -2.81557e-20)
(0.10243 0.0900551 -2.32546e-20)
(-0.0644809 -0.0332717 0)
(1.07052 -0.0580725 -1.96949e-20)
(1.1007 -0.225512 -1.5991e-20)
(0.580143 -0.401672 0)
(1.09665 -0.151559 -2.59131e-20)
(-0.135007 0.0911798 0)
(0.60629 0.0389598 0)
(1.46636 0.0339768 4.73633e-20)
(0.994476 0.02751 1.10446e-23)
(1.07718 0.743938 -1.46706e-20)
(0.223726 -0.375539 1.32469e-19)
(1.08283 0.0169773 4.95348e-22)
(1.20599 0.0734996 1.53802e-21)
(-0.0526245 0.0497943 3.08514e-20)
(0.787803 0.733582 2.6642e-20)
(1.34271 -0.379043 -1.27324e-20)
(-0.131779 -0.146787 8.45048e-20)
(1.10992 0.0462736 0)
(0.175367 -0.0591817 -7.93759e-21)
(0.888769 -0.630777 2.62494e-21)
(0.901252 0.642018 -2.1222e-20)
(0.521527 -0.0401495 -5.83681e-20)
(1.14819 -0.00342892 2.61707e-21)
(1.07695 -0.0867149 6.60791e-21)
(1.14766 0.0617818 -2.26961e-21)
(1.10546 0.121057 2.73679e-21)
(1.13123 -0.133642 0)
(0.911656 0.107356 1.50542e-20)
(0.888811 0.459239 0)
(1.24518 0.115855 2.88517e-21)
(1.16736 0.113188 -1.89749e-21)
(0.754917 0.264283 0)
(0.524051 0.109936 1.09477e-19)
(0.893674 0.712624 -9.17643e-22)
(1.07906 0.291201 -2.03593e-20)
(1.04332 -0.0111444 1.12466e-20)
(0.415344 0.492681 0)
(1.28912 -0.47809 0)
(0.540932 -0.0877206 4.78263e-21)
(1.26488 0.50296 0)
(-0.0224693 0.0539238 -4.43371e-20)
(1.27762 -0.419545 -5.04865e-21)
(1.16524 0.50913 0)
(0.452185 0.218998 1.67741e-19)
(1.12561 0.31551 -1.22617e-19)
(0.811161 -0.63803 -2.65664e-20)
(1.15444 0.0619147 -4.64771e-21)
(0.919034 0.150695 8.3236e-20)
(1.08955 0.169034 4.77571e-20)
(1.07145 0.703868 -1.66653e-22)
(0.8999 -0.436594 6.59994e-20)
(1.42468 0.180513 4.26362e-20)
(1.13008 0.0107003 8.44243e-23)
(-0.00422802 -0.051776 8.45953e-20)
(1.07442 -0.700233 2.2644e-20)
(0.865462 -0.716427 5.52163e-20)
(0.249642 -0.329004 0)
(0.971537 -0.146736 7.27964e-20)
(0.362254 0.309365 -4.35444e-19)
(-0.0985059 -0.0278026 2.26879e-20)
(0.248733 0.038155 2.34491e-20)
(0.652379 -0.0612197 -6.91758e-20)
(1.07951 0.529173 0)
(0.99353 0.223419 7.75522e-20)
(1.08851 0.0313441 2.76453e-21)
(0.909946 0.442822 -8.90908e-20)
(0.774268 -0.719798 -8.82656e-21)
(0.9255 0.0243155 -4.86802e-20)
(0.977415 0.489839 0)
(1.14357 0.197085 -1.44725e-20)
(1.37298 -0.51901 1.21879e-20)
(1.22475 -0.345125 8.47158e-21)
(-0.28056 0.0194709 3.43993e-20)
(0.193826 0.00629209 -1.8056e-20)
(0.974092 -0.117559 -5.78788e-20)
(0.353153 0.526464 0)
(0.913847 0.0181002 3.87875e-20)
(1.15748 0.636042 8.21514e-20)
(-0.0592394 -0.0937743 1.33904e-19)
(-0.0702342 0.0222918 -2.55717e-20)
(-0.0749988 -0.0968208 3.96745e-20)
(1.09733 0.0247605 -3.60417e-21)
(1.11697 -0.459978 0)
(1.0609 -0.733392 -4.47324e-20)
(0.698309 0.350537 0)
(0.0295324 -0.0990097 -9.53152e-20)
(1.09501 0.0240493 -1.12624e-23)
(-0.0316341 -0.0886564 -2.75386e-20)
(1.04741 0.0561525 -1.22051e-20)
(0.109049 0.0313348 5.74777e-20)
(0.849819 0.125463 0)
(1.39785 -0.0433038 5.20893e-20)
(0.0449923 0.0380498 -2.66249e-20)
(-0.272875 0.0311776 -4.08389e-20)
(-0.217513 0.0189373 0)
(0.0689265 -0.0152097 0)
(1.35633 -0.0164028 -1.4479e-20)
(0.360274 -0.0132629 1.42402e-19)
(1.25764 -0.726234 -1.83135e-20)
(0.877743 -0.135169 2.32719e-20)
(1.07374 0.252262 -2.81614e-20)
(0.365066 -0.553013 1.40322e-19)
(1.54418 0.276777 -3.58983e-20)
(0.0536587 -0.0729073 3.26318e-20)
(0.208191 0.307206 1.94248e-19)
(0.0766426 -0.0442536 -1.22616e-19)
(0.939432 -0.492437 -4.36475e-20)
(1.45315 0.386252 3.66226e-20)
(0.561903 -0.671246 4.95524e-20)
(1.10774 -0.0865458 -6.59083e-21)
(0.178302 -0.0278372 5.1483e-20)
(1.18334 0.289636 -4.91351e-20)
(0.662111 0.640751 -3.98532e-20)
(1.32491 -0.623828 0)
(1.4174 0.518133 3.44795e-20)
(1.04852 -0.528479 -1.21927e-20)
(1.38817 0.605542 -1.03724e-19)
(1.18361 0.0433135 0)
(-0.0537863 0.0690746 0)
(1.25086 0.72895 0)
(1.15573 0.0627333 -4.46567e-21)
(0.738316 -0.299997 -2.06771e-19)
(0.475021 -0.0814551 0)
(-0.0579023 0.0634156 -2.61491e-20)
(1.0193 -0.247193 9.88089e-20)
(-0.357159 -0.0173196 0)
(0.320951 0.0275114 1.21988e-20)
(1.14112 0.0429865 0)
(1.41412 0.272303 0)
(1.18903 0.0565486 4.97679e-21)
(0.359532 -0.289493 0)
(1.01541 0.151948 3.57813e-20)
(1.30842 0.284876 0)
(-0.0967488 0.0255207 -7.58053e-22)
(0.810071 -0.394827 0)
(1.51343 0.336732 -5.44448e-20)
(1.2416 0.367726 -1.35827e-21)
(0.84049 0.646259 -9.61437e-21)
(1.01262 0.15943 -8.56179e-20)
(0.968758 -0.204563 -4.82195e-20)
(1.45103 0.292733 3.20091e-20)
(1.00174 0.0877534 0)
(0.563203 -0.0695507 0)
)
;

boundaryField
{
    FrontBack
    {
        type            empty;
    }
    Top
    {
        type            noSlip;
    }
    In
    {
        type            fixedValue;
        value           uniform (1 0 0);
    }
    Bottom
    {
        type            noSlip;
    }
    Out
    {
        type            zeroGradient;
    }
    circle
    {
        type            noSlip;
    }
}


// ************************************************************************* //
