/*--------------------------------*- C++ -*----------------------------------*\
| =========                 |                                                 |
| \\      /  F ield         | OpenFOAM: The Open Source CFD Toolbox           |
|  \\    /   O peration     | Version:  2412                                  |
|   \\  /    A nd           | Website:  www.openfoam.com                      |
|    \\/     M anipulation  |                                                 |
\*---------------------------------------------------------------------------*/
FoamFile
{
    version     2.0;
    format      ascii;
    arch        "LSB;label=32;scalar=64";
    class       volScalarField;
    location    "4";
    object      p;
}
// * * * * * * * * * * * * * * * * * * * * * * * * * * * * * * * * * * * * * //

dimensions      [0 2 -2 0 0 0 0];

internalField   nonuniform List<scalar> 
808
(
0.117178
0.0226739
0.0241646
0.119911
-0.257395
0.0263461
0.0338521
0.0270232
-0.153555
-0.0363067
0.0442226
-0.172858
0.0275703
0.0253917
-0.376407
0.0167195
-0.388608
0.0146937
0.0288667
0.00719709
0.0483987
0.34158
0.0486069
-0.0146379
0.413662
-0.151461
-0.0774263
0.0141999
0.012977
0.0198153
0.00929694
0.0147077
0.0120785
0.0166753
-0.0922268
0.589582
0.0153585
0.0244756
0.0315885
0.0176422
-0.0624586
-0.0702756
0.0414147
0.0314066
-0.104432
0.058776
0.023406
-0.00716347
0.0321538
-0.197465
0.0375998
0.00320659
0.0367065
0.00683844
-0.145268
0.0306891
0.00462018
0.0376993
-0.0379982
0.0190201
-0.161087
-0.0177962
0.0359248
-0.188967
0.0354166
0.0440881
-0.312362
0.0265348
0.0424975
-0.307374
0.0357656
-0.345117
0.0355575
0.0277988
0.160028
0.0343642
0.013773
-0.136276
0.0346019
0.27844
-0.10548
0.0127488
0.0161945
0.241795
0.0373557
-0.00128785
-0.389404
-0.168908
0.0315399
-0.209622
0.035476
-0.112028
0.233502
0.126823
0.0271844
-0.306184
0.0241445
-0.0665103
-0.11774
-0.270883
0.0342878
0.00666962
0.0478467
0.00604997
-0.0639056
0.0457197
-0.1078
0.0167869
0.0251709
0.00324697
-0.0220957
0.299598
0.0286479
0.051007
0.0310317
0.419871
0.0282664
-0.295736
0.0260755
0.0563715
-0.0750471
0.0358131
0.0284909
0.050331
0.0816994
-0.107426
0.100799
0.058676
0.0135916
0.0667294
-0.379969
0.0296901
-0.0408006
0.0925184
0.0251016
0.0340484
0.0407764
0.00324322
0.0313414
0.0257851
-0.432555
0.0443888
0.0289622
0.0377045
-0.0788292
0.0514149
0.0830523
0.147834
0.0526643
0.0116042
0.031289
0.306719
0.0577712
0.49136
-0.389018
-0.123877
0.0274719
-0.181507
0.0338641
-0.127471
-0.344123
-0.414055
-0.340893
0.0421134
0.0631451
0.0296961
0.0299617
-0.369876
0.0315228
0.0393748
0.0390728
0.128487
0.0497303
0.0960625
0.0299291
0.0560759
0.0647634
-0.178136
0.0316714
-0.376069
0.0318304
-0.1999
0.0414133
0.244056
-0.313626
0.104384
0.0288131
-0.14977
0.039302
-0.102958
-0.402928
-0.058111
0.0227293
0.0695202
0.0338148
-0.41667
0.0235574
0.026165
0.0215375
0.050612
0.0641603
0.0266912
0.0272105
-0.347498
0.344575
-0.370235
-0.346161
0.00980909
0.0250582
0.0357034
0.00530721
-0.427138
-0.367879
0.025368
0.0114693
0.027724
-0.35506
-0.0998445
0.00742981
0.0377105
0.00241986
-0.153077
0.0267248
0.0290234
0.0168228
0.0224701
0.105424
-0.396417
0.0264496
0.0110993
0.0923965
0.0199013
0.0189446
0.0148213
-0.070663
0.0274625
0.0169424
0.00661618
0.00435238
0.0233989
0.00762008
0.001855
-0.00073389
0.0287237
-0.00270553
0.00282853
0.000636967
0.00590804
0.00204784
0.0447638
-0.349149
-0.00222386
0.00481351
-0.0670435
0.00843399
0.0273612
0.0210988
0.00114849
0.0248911
0.0897241
0.0253173
0.0121386
0.00966053
0.0814872
0.0254976
0.016576
0.0196102
0.0441903
0.0202834
0.0367444
0.025054
-0.428509
0.235593
0.0110721
0.0188222
0.010643
0.0110258
0.0114859
-0.237066
0.252931
0.0206222
0.023221
0.0159401
0.0735895
-0.0292414
0.0162676
0.0430863
0.0714757
0.0233935
0.0382035
0.0284294
0.0246549
0.01026
0.0136943
0.02763
0.0126895
0.0254205
0.0183739
0.0254623
0.0255613
0.0151619
0.0167745
0.0188222
0.0152078
-0.528922
-0.0917588
0.0309799
0.102172
-0.197587
-0.235895
0.0173774
0.0168692
-0.363514
0.112074
0.144884
0.0236254
0.0294779
0.0306189
0.0169174
-0.242952
0.0345128
-0.000300033
0.027082
0.00898754
0.0131145
0.0301437
0.0382454
0.0228904
0.0167326
-0.34094
0.10744
0.0213746
0.0879836
0.0822613
0.0188377
0.198993
0.0128027
-0.170926
0.512307
0.0483556
0.01045
0.0288882
-0.00415067
-0.0795179
0.0369378
0.0338803
0.0349067
0.0362514
-0.00983444
-0.334901
0.0383707
0.0905502
-0.00369026
-0.337611
-0.345401
-0.444017
-0.365684
0.0429136
0.0363633
0.0419979
0.048939
0.0125404
0.0131456
0.0412211
0.00829745
-0.524334
0.0452318
0.0404481
0.0151541
-0.148997
0.052248
0.00577896
0.10608
-0.38479
0.0394446
0.022271
0.0389702
0.0596391
-0.337201
0.0442505
-0.412463
0.0412668
0.0704597
0.021479
0.0336
0.0425868
0.100752
-0.365537
0.0241566
0.0384286
0.11454
0.0493998
0.0232521
0.0417627
0.0269558
0.0291422
0.0853604
0.0258849
0.0341459
0.0126895
-0.2409
0.151624
0.0166671
-0.0298542
-0.0297919
0.0205649
0.400217
-0.0162492
0.00589138
0.133165
0.0405652
0.0402289
0.0210125
0.0731816
-0.00478813
0.0785296
-0.032267
0.0276313
0.00362217
0.000711004
0.000742148
0.000246003
0.0127981
0.117717
0.104367
0.0151737
0.00936744
-0.0230149
0.00357578
0.0249484
-0.395836
0.0939527
0.0414503
0.0119784
0.170738
-0.324738
0.0171529
-0.106572
0.0291089
0.0328745
-0.0141472
-0.266399
0.17265
-0.33764
-0.475189
-0.0290417
0.103099
0.025428
-0.339504
0.319401
0.017939
-0.381476
0.0187561
0.0512999
0.540107
0.0115025
-0.00292305
0.00185104
0.0494069
0.017197
-0.0866355
-0.430487
0.0496882
0.0504222
0.0534235
-0.280164
-0.339228
-0.286659
0.0296898
0.0511263
0.0704166
-0.00381215
0.0278305
0.0712511
0.0904455
0.0401382
-0.163416
-0.408645
0.0574445
0.0109257
0.0308214
-0.00877836
0.0656897
-0.0587814
0.0141341
-0.491648
0.422273
-0.24298
-0.361474
0.00324698
0.00958461
-0.369359
-0.348887
0.10714
-0.361176
-0.0315541
0.823167
0.0211435
-0.380089
0.0264667
0.0388747
0.0516427
-0.471483
-0.40164
-0.332051
0.0104704
-0.108151
-0.386003
-0.00670367
-0.0041254
0.051097
-0.348714
0.00784062
-0.524091
-0.427313
-0.49392
0.148953
0.0103231
0.029391
0.0867072
0.115912
0.0137551
-0.325806
0.274603
0.0616071
0.012218
-0.465724
-0.521574
-0.358032
0.0589802
-0.374997
0.061709
0.0759808
0.07026
-0.15674
-0.255427
0.0153934
-0.334358
-0.416117
0.0177098
0.0178177
-0.0738219
0.00419176
0.0125938
-0.405406
-0.397645
-0.0842029
0.0612062
0.0442794
-0.3579
-0.393799
-0.311745
0.054067
0.0103623
0.0706115
0.0135483
-0.379699
-0.401148
0.0784275
0.0392732
0.0213174
0.0243428
0.0381721
-0.434343
0.0290952
-0.294098
0.0368592
-0.283416
0.0625447
0.011483
-0.473015
-0.566702
0.00616307
-0.488599
-0.485987
0.0405972
-0.139201
-0.365347
0.00500334
-0.325121
0.0255129
0.0364403
0.0504899
-0.195365
0.0553126
0.0611517
-0.5437
0.0161945
-0.394919
0.0238928
-0.326482
-0.616509
0.0767534
0.230142
0.413397
-3.7883e-05
0.0136812
0.00155418
-0.366765
0.605977
0.0235497
-0.272471
0.0237611
-0.0833182
0.0690668
0.442624
-0.477007
-0.0166012
-0.0338931
0.0289526
0.0160454
-0.563771
-0.325516
-0.420201
-0.420622
-0.291644
0.0161771
-0.372593
0.0636908
-0.346531
-0.392099
0.468447
0.547739
-0.442043
0.089678
-0.362446
-0.0110686
0.0649941
0.359998
0.0641849
-0.352843
0.108381
-0.609568
-0.0348222
-0.266656
-0.0783696
-0.410465
-0.369967
0.0151658
0.0200009
-0.342916
0.421836
0.63663
-0.379856
-0.406297
-0.37654
-0.0379343
-0.40485
-0.380887
-0.211901
-0.346285
0.716919
-0.43685
0.708213
-0.438604
0.307968
-0.342127
-0.00418085
0.13253
-0.607001
0.201885
-0.356376
-0.402179
-0.430096
0.832574
-0.354033
0.181797
0.123762
0.609163
0.106746
-0.475314
-0.40981
-0.119637
0.0149804
0.0294795
0.491914
0.0178162
-0.0375217
-0.384805
0.0607084
-0.145373
-0.254907
0.0280385
-0.401766
-0.174141
-0.226169
-0.397033
0.0137532
0.0929866
0.0277158
0.0576232
0.0966189
-0.43328
-0.438798
0.0435062
-0.0105541
-0.558287
-0.614312
0.122618
0.1581
0.0809666
0.630094
-0.103531
-0.185681
-0.465444
-0.393345
-0.0830224
0.0317793
0.725264
-0.548998
0.351936
0.0250794
-0.536645
0.116485
-0.139485
0.361317
-0.197439
0.0142922
-0.355816
-0.0969217
0.173033
0.776078
0.313645
0.722423
-0.441952
-0.40316
-0.444873
0.117291
0.238477
0.0305697
0.335853
0.116215
0.464711
0.229364
0.0596719
-0.211105
0.0056519
-0.304888
0.844525
0.385909
0.610418
0.471885
-0.339018
-0.412057
-0.376388
-0.348014
0.040746
-0.425661
0.081786
0.557627
-0.428751
0.021212
-0.333989
0.158878
-0.421875
-0.471703
-0.124617
-0.394305
-0.391219
-0.395216
-0.363667
-0.0968101
-0.447494
-0.153397
-0.164706
0.111134
0.621947
-0.289459
-0.345205
0.790632
-0.340884
0.26475
-0.307418
0.362888
0.0778635
-0.432066
-0.496764
0.399126
-0.297191
-0.40146
0.167013
-0.348682
0.0152501
-0.394986
-0.183936
0.0275064
0.540054
0.742313
-0.394797
0.208625
-0.256525
0.783602
0.0131622
-0.396845
0.0163605
0.726686
0.168932
-0.405547
-0.391829
0.430176
-0.278748
-0.0132537
0.303428
0.218363
0.279991
-0.323982
-0.412429
0.65206
)
;

boundaryField
{
    FrontBack
    {
        type            empty;
    }
    Top
    {
        type            zeroGradient;
    }
    In
    {
        type            zeroGradient;
    }
    Bottom
    {
        type            zeroGradient;
    }
    Out
    {
        type            fixedValue;
        value           uniform 0;
    }
    circle
    {
        type            zeroGradient;
    }
}


// ************************************************************************* //
