/*--------------------------------*- C++ -*----------------------------------*\
| =========                 |                                                 |
| \\      /  F ield         | OpenFOAM: The Open Source CFD Toolbox           |
|  \\    /   O peration     | Version:  2412                                  |
|   \\  /    A nd           | Website:  www.openfoam.com                      |
|    \\/     M anipulation  |                                                 |
\*---------------------------------------------------------------------------*/
FoamFile
{
    version     2.0;
    format      ascii;
    arch        "LSB;label=32;scalar=64";
    class       surfaceScalarField;
    location    "4";
    object      phi;
}
// * * * * * * * * * * * * * * * * * * * * * * * * * * * * * * * * * * * * * //

dimensions      [0 3 -1 0 0 0 0];

oriented        oriented;

internalField   nonuniform List<scalar> 
1171
(
-0.944606
0.944606
0.83275
-1.1037
0.270946
-0.187182
-0.69763
0.884812
0.0553941
-0.0770717
-0.272516
0.349587
-0.83275
0.0649221
0.767828
0.829541
-0.174784
-0.654757
0.836677
-1.00364
0.166967
-0.35133
-0.0581244
0.409454
-0.00150684
0.591218
-0.589711
-0.496546
0.830382
-0.333836
-0.428401
0.99647
-0.159793
0.351626
0.0543564
-0.405983
0.991656
0.00481332
0.382161
-0.0305349
1.01154
-0.0198826
0.605692
-0.792874
-0.804238
0.646542
0.157695
0.21194
-0.708487
0.554231
-0.914166
0.359936
-1.09127
0.695017
0.396249
-0.657403
0.655897
0.0334113
-0.256521
0.22311
-0.03416
-0.604529
0.638689
0.461964
-0.520088
-0.856669
0.880801
-0.0241317
1.01201
-0.000467229
0.894904
-1.08674
0.191834
1.00873
0.00328084
-0.70067
-0.103568
1.24062
-0.822442
-0.418175
0.152056
-0.0799691
-0.39647
0.476439
-0.269549
0.178036
0.0915124
-0.604396
-0.4993
0.974527
-0.0796229
0.00174615
0.809711
-0.811457
0.574267
0.666349
0.511249
0.00655461
0.455409
-0.761983
-0.126429
0.888412
0.508328
0.260453
-0.768781
-0.0555524
0.647633
-0.592081
-0.505569
-0.585697
-0.398043
-0.688696
0.0119664
0.256769
-0.268735
-0.904409
0.000307712
0.904102
0.374977
0.0344767
0.781764
0.0477774
-0.597995
-0.0594083
0.0619222
-0.823905
0.0963134
0.874391
-0.970704
-0.403689
0.0155136
0.388176
-0.665742
-0.238667
-0.631654
0.727967
0.620659
0.209723
-0.583156
0.975087
-0.806939
-0.168147
-0.0479908
-0.0519672
0.0999579
-0.456463
-0.0636251
-0.250856
0.871515
0.0214775
0.414091
-0.435568
-0.481603
0.98993
0.697204
-0.823632
0.397423
-0.0599184
-0.337504
0.96458
-0.96458
-0.815438
0.0476345
-0.32015
-0.770813
0.772559
-0.043748
-0.149012
0.19276
0.83736
-0.027649
1.00924
-0.748783
0.218689
-0.3199
0.101211
0.870374
-0.0886099
-0.658583
-0.0435746
0.702157
0.148035
-0.234442
0.0864071
0.753145
-0.927929
-0.437734
0.309092
0.128642
0.583334
-0.617494
1.0187
-0.433991
-0.584712
0.620661
-0.70555
0.0342311
0.671319
0.101593
0.649305
0.0556209
-0.704926
0.14402
-0.0963858
-0.522229
0.11854
0.0278869
-0.893718
0.865831
-0.550173
-0.735806
0.0351361
0.498251
-0.0428418
0.282156
-0.8369
0.554744
0.433475
0.566525
0.584178
-0.522256
-0.4189
0.0179077
0.400993
0.748934
0.215646
-0.638861
0.583309
0.101781
0.818067
0.0391208
-0.697703
-0.720865
0.748752
0.60573
0.0518557
0.358258
-0.410113
-0.128888
0.506835
0.140798
0.926138
-0.848938
-0.0771996
0.640644
0.334443
-0.444496
0.615543
-0.563687
0.404322
0.149909
-0.0250982
-0.572768
-0.157426
0.730194
-0.152086
-0.812494
-0.605015
0.355976
0.249039
0.66063
-0.621509
0.305839
0.964362
0.0448745
-0.720865
0.0309333
-0.078924
0.697204
0.795604
-0.795604
0.858582
-0.8046
-0.0539816
-0.461782
0.895257
-0.189859
-0.33237
0.756189
-0.671746
-0.0844431
-0.720998
0.14823
0.125421
-0.723416
0.823632
-0.952521
-0.248446
0.2314
0.0170457
0.142547
-0.964202
0.821655
0.516347
-0.00509866
-0.292205
0.582042
-0.289837
-0.793377
0.935924
-0.14631
0.657031
-0.757773
0.100741
0.986721
-0.580818
-0.405903
0.770505
-0.0511611
-0.0316513
0.0416737
-0.0100224
-0.795214
-0.772971
0.0753407
-0.770813
0.571021
-0.555507
0.0939773
0.638268
-0.732246
0.774847
0.169759
0.492759
0.507241
-0.112133
-0.611418
0.723551
0.924526
0.00161157
-0.770505
0.748752
0.179961
-0.436482
-0.0407068
0.00710787
0.0335989
0.649212
-0.432603
-0.216609
0.767828
0.0466087
-0.11594
0.507046
0.142166
-0.0234454
0.00135823
0.0220872
-0.00026552
-0.0313857
0.174845
-0.234763
-0.941913
0.000160031
-0.193161
-0.073601
0.0926445
0.739074
0.729626
-0.1631
0.732718
-0.638741
-0.17021
0.388899
0.748502
0.0193256
0.256048
-1.06065
-0.952521
0.332136
0.772559
-0.170133
0.0211212
-0.739234
0.931077
-0.191843
0.480505
-0.0923292
0.81467
0.29445
0.299491
0.0826701
-0.67929
0.67929
0.225273
0.663139
-0.0361015
0.450192
0.440338
0.0192995
-0.0600062
0.508066
0.00828128
-0.793377
0.539166
0.217022
0.0615843
-0.0199106
-0.748502
0.18199
0.749087
0.0180855
-0.775829
0.757743
0.742796
-0.827109
0.0843128
-0.774847
-0.0432543
0.0592457
-0.0159915
0.0858335
-0.146914
-0.111686
0.258599
-0.0144108
-0.00903468
0.702612
-0.684526
0.811483
0.0733295
-0.319649
-0.493657
0.813306
-0.000154669
0.000154669
0.249308
0.45267
0.617054
-1.06972
-0.187847
-0.549554
0.737401
-0.0174773
0.210237
0.387136
-0.239101
0.986511
-0.533841
0.679672
1.02428
-0.407221
0.197278
0.935924
0.776131
0.212309
0.668492
-0.812494
0.32071
-0.0803655
0.0716636
0.00870189
0.806473
-0.00837223
-0.798101
-0.756248
0.759529
0.538218
-0.756248
-0.776131
0.759529
-0.0555272
0.831625
-0.0201422
-0.748934
0.686789
0.0621448
0.518593
0.568107
-1.0867
0.469291
0.51722
0.549863
0.457569
-1.00743
0.514993
0.509282
0.686789
-0.512557
-0.464926
-0.572306
-0.511548
-0.119504
-0.00826212
0.00826212
0.521795
0.50706
-1.01861
0.645637
-0.287379
-0.919537
0.338719
-0.660298
0.42163
-0.00365892
-0.827302
0.830961
0.437421
-0.0225962
0.82907
-0.951303
-0.848854
0.0457507
0.803103
0.619215
-0.485013
-0.134202
0.66508
-0.744703
0.887222
-0.825007
-0.062215
-0.0135093
-0.835429
-0.119259
0.719119
-0.599861
-0.873354
0.859845
-0.787017
0.742354
0.044663
-0.855534
0.0419031
0.813631
0.00481542
-0.00497009
0.432064
0.0640804
-0.882728
0.818648
-0.71033
0.598198
0.907235
0.0824626
-0.989698
0.0583813
-0.0494495
0.450442
-0.363776
0.0438763
0.855143
-0.858802
-0.782205
-0.854365
0.0189363
-0.104583
-0.848246
0.0232388
0.686276
0.0464424
0.0240191
0.595196
-0.808972
0.850875
0.584712
-0.849899
-0.790891
0.0407339
-0.0354901
0.830172
-0.794682
-0.0172847
-0.817695
0.57532
0.167476
-0.0211997
0.850269
0.905595
0.883195
-0.859956
0.0488867
-0.0488867
-0.110448
-0.516903
0.03189
0.333788
-0.00165194
0.3461
0.832985
0.00436629
-0.018777
0.660933
0.339067
0.787209
-0.604396
-0.729457
-0.803054
-0.735397
0.735397
-0.204833
-0.115318
0.619306
-0.84406
0.224754
-0.469025
-0.556864
0.28264
-0.971336
-0.864763
0.802548
-0.819096
0.838033
0.667925
0.147381
-0.815306
-0.758391
-0.156621
0.768105
-0.611484
0.0317788
-0.00401854
0.00828927
-0.00427072
-0.358835
-0.158068
0.901946
0.672083
-0.266942
-0.405141
0.53788
0.720053
-0.494781
0.00988059
-0.279429
0.0210119
0.70021
-0.721222
-0.30341
-0.127022
0.138418
-0.911075
0.112974
-0.696678
0.0610662
0.682692
-0.743758
-0.781123
0.0844445
0.61601
-0.743032
0.226787
-0.373701
-0.759532
0.00114153
0.389688
0.683948
-0.0684054
0.00656537
-0.00656537
-0.0069039
-0.00762273
-0.0727427
-0.0318789
0.0362452
-0.71309
0.287805
0.713846
-0.730469
0.0166239
-0.592561
0.653628
0.717391
-0.10138
-0.648491
-0.132632
-1.04133
0.0205227
0.028364
-0.692078
-0.76775
-0.791327
0.373152
-0.268019
0.408991
-0.140971
-0.651425
-0.0406528
0.517305
0.716327
-0.06466
-0.00894099
0.909933
0.45488
0.171008
-0.625888
-0.645677
-0.00574796
-0.0182332
0.0142147
0.653461
-0.810887
0.00741521
-0.00741521
-0.63339
0.669902
-0.0365116
-0.621658
-0.126246
-0.656983
0.141731
0.581819
-0.0607316
-0.813604
-0.469713
0.468597
0.00111597
0.629748
-0.613124
0.325855
0.242742
-0.568596
-0.114289
-0.63041
-0.113348
-0.17851
-0.327982
0.457735
-0.52136
0.140985
0.709427
-0.850412
0.620661
-0.30876
0.040741
0.0819722
-0.409954
0.600375
-0.0872788
-0.513096
-0.286318
0.304229
-0.0179109
0.436785
0.208852
0.0869806
-0.306175
0.164357
0.141818
0.146361
-0.115428
-0.279465
-0.228333
0.357719
-0.129386
0.792646
-0.573369
-0.0482892
0.552329
0.261753
-0.528695
0.636754
-0.636754
-0.250915
-0.632925
-0.258407
-0.632925
-0.616546
-0.846308
0.174562
-0.541479
0.789914
0.0448677
0.196249
0.4877
0.0928076
0.123602
0.00619858
-0.129801
-0.0728821
0.599615
-0.892179
0.398522
-0.0334805
0.0906934
-0.0572129
-0.712864
-0.171633
-0.461197
0.632205
-0.527501
-0.108281
-0.301673
-0.339156
-0.082597
0.082597
0.0576289
0.00161689
0.144125
0.293563
-0.633034
0.171837
0.038183
0.480818
0.519182
0.685178
0.0549076
0.0284368
-0.0833444
-0.256647
-0.556957
-0.509281
0.111777
-0.116496
0.00471827
-0.116434
-0.419649
-0.0926168
0.674436
-0.549768
-0.163096
-0.160248
0.0808837
0.130333
-0.679394
-0.198634
-0.211397
-0.0233664
-0.490683
0.408007
0.0826763
-0.0787387
0.273231
-0.858928
-0.54723
0.601554
-0.802071
0.687782
0.400743
-0.0448103
0.0778914
-0.0330811
0.0405033
-0.642321
0.0087305
0.633591
-0.890889
0.625339
-0.735788
-0.0896305
0.00911724
-0.00911724
-0.296294
0.399692
0.0507505
0.0178973
0.0370103
0.537325
0.671203
-0.748402
0.0250052
0.0113239
-0.00475855
0.00512008
-0.00512008
-0.410589
0.619441
0.0143512
-0.0143512
-0.755947
-0.0105344
0.0153499
-0.431071
0.602908
0.459244
-0.495756
0.0710063
-0.0710063
0.0111085
-0.0711148
-0.00115968
-0.907207
0.501303
-0.551561
-0.00497009
0.591903
0.0262933
-0.618196
-0.696695
0.146927
-0.319942
-0.0109673
0.330909
-0.0342624
-0.0303975
-0.600853
-0.0414688
0.028364
0.00580145
0.00161376
-0.00230132
0.00230132
-0.481934
0.352547
-0.428781
0.135117
0.652093
-0.138188
0.0017239
-0.0017239
0.51505
-0.0841977
0.00927191
0.0192468
0.000149987
0.601913
-0.68611
-0.642057
0.593768
-0.151869
0.340316
0.724731
-0.0069039
-0.131631
0.11172
-0.713684
0.53401
-0.406257
-0.104792
-0.0255322
-0.0261128
-0.00344213
0.448619
-0.0970513
-0.416045
0.660133
0.00314204
0.0106955
-0.0106955
-0.25801
-0.18837
-0.569303
0.614171
-0.156496
0.484991
-0.157243
0.762934
0.68406
0.00580145
-0.636688
0.56812
0.0796061
-0.129064
0.0494582
0.515029
0.102473
-0.0140471
0.0775598
-0.0635127
0.0117458
-0.0117458
-0.807779
0.0221196
-0.047739
0.0669858
-0.0890176
0.0890176
0.0113239
-0.00518
0.691835
0.0572529
-0.327842
-0.0918076
-0.506394
-0.0806415
-0.0706515
0.0706515
-0.0722358
0.0819045
-0.0819045
0.0305636
-0.0305636
-0.35753
-0.0869665
0.238215
0.0708768
0.0500355
-0.770964
-0.071266
0.163906
0.0160549
-0.263896
0.0807818
-0.0807818
-0.460105
-0.0612556
0.234476
-0.0113664
0.00350013
-0.596106
0.651633
0.0435007
-0.115737
-0.00395458
-0.0671602
-0.0108982
-0.157974
0.168873
-0.150248
-0.223453
-0.0846458
0.0846458
0.055818
-0.055818
-0.028793
-0.0963292
0.125122
0.0503489
-0.185107
-0.0207345
0.0159759
-0.210661
0.563209
-0.026779
0.392246
0.00930478
0.0127824
-0.0556085
0.0556085
-0.727057
0.324699
-0.127421
-0.212392
-0.0220499
-0.0228837
0.0263838
0.211586
0.0470132
-0.000491633
0.000641619
0.082214
0.0295633
0.0562101
0.107696
-0.0322022
0.0232612
0.00328032
0.00404303
0.00508352
0.0167487
-0.0218322
0.000628388
0.0124468
0.0281358
-0.0281358
0.0546761
-0.0419101
0.0419101
-0.19942
0.0168254
0.0153945
-0.0817263
0.0188178
0.0761917
-0.0761917
0.294262
-0.252068
0.10182
-0.0689129
-0.183155
-0.0156278
0.0156278
0.411955
0.259364
-0.52774
-0.0792392
-0.0372564
0.547071
0.0463943
-0.0846177
-0.439248
0.0762295
-0.155556
0.173916
-0.0183604
-0.0466284
0.0466284
0.80096
-0.588639
-0.0181891
0.0188174
-0.00642061
-0.28695
-0.0011227
0.00437184
-0.0501449
-0.599573
0.567649
-0.607291
0.0139943
0.136449
0.015043
0.025045
-0.161976
-0.342161
0.260435
-0.0564751
0.0276822
0.166786
0.137442
0.265458
0.271682
-0.256639
0.00669727
-0.120164
-0.22336
0.0689832
-0.012773
0.169306
-0.144261
-0.0685481
0.150762
-0.36455
0.132426
-0.113608
0.0674064
-0.483451
0.178288
0.172067
-0.240615
0.0119552
-0.177008
0.175885
0.00459017
0.146172
-0.0275588
0.0472546
0.467795
0.012508
0.0358779
-0.00672628
0.0408729
-0.24172
-0.21352
0.563725
0.170843
0.063633
0.0765463
-0.0611915
0.0922033
-0.042745
-0.029979
0.170232
-0.156238
0.0324358
-0.00221315
-0.107681
-0.0308359
0.055697
0.264907
-0.0385054
0.0250431
-0.315782
-0.0135721
0.215943
0.148297
0.176402
0.055698
0.0983431
0.0345866
0.502738
-0.0185519
0.0987971
0.0427521
0.0648152
-0.107567
-0.268375
-0.203995
0.0208401
-0.218544
0.294942
)
;

boundaryField
{
    FrontBack
    {
        type            empty;
    }
    Top
    {
        type            calculated;
        value           uniform 0;
    }
    In
    {
        type            calculated;
        value           uniform -1;
    }
    Bottom
    {
        type            calculated;
        value           uniform 0;
    }
    Out
    {
        type            calculated;
        value           nonuniform List<scalar> 10(1.01915 1.03115 1.03723 1.03221 1.02568 1.02083 1.02885 1.02589 0.887669 0.891332);
    }
    circle
    {
        type            calculated;
        value           uniform 0;
    }
}


// ************************************************************************* //
