/*--------------------------------*- C++ -*----------------------------------*\
| =========                 |                                                 |
| \\      /  F ield         | OpenFOAM: The Open Source CFD Toolbox           |
|  \\    /   O peration     | Version:  2412                                  |
|   \\  /    A nd           | Website:  www.openfoam.com                      |
|    \\/     M anipulation  |                                                 |
\*---------------------------------------------------------------------------*/
FoamFile
{
    version     2.0;
    format      ascii;
    arch        "LSB;label=32;scalar=64";
    class       volVectorField;
    location    "4";
    object      U;
}
// * * * * * * * * * * * * * * * * * * * * * * * * * * * * * * * * * * * * * //

dimensions      [0 1 -1 0 0 0 0];

internalField   nonuniform List<vector> 
808
(
(0.869247 -0.0350153 0)
(1.02906 -0.00659134 0)
(1.02015 -0.000474743 0)
(1.0888 0.0334417 -2.42225e-21)
(1.46531 -0.244535 0)
(1.00836 -0.0271003 0)
(1.03664 -0.0292391 -7.6908e-21)
(1.03732 0.00219154 0)
(1.38383 -0.19796 2.98114e-20)
(1.21354 -0.0990442 -1.04859e-20)
(1.01462 -0.0108638 8.91938e-21)
(1.40312 -0.212043 0)
(1.01794 0.0211763 0)
(0.825669 0.00449899 0)
(1.23643 -0.108536 2.40137e-20)
(1.03317 -0.0146618 0)
(1.05197 -0.0894857 -7.71806e-21)
(1.0295 -0.00190139 -7.83738e-23)
(1.01902 -0.00141442 0)
(1.14012 -0.0644824 0)
(1.01883 -0.0183332 -1.24481e-20)
(0.932379 0.10763 9.90674e-20)
(1.07839 0.0480835 -9.52915e-21)
(1.19235 -0.0332965 0)
(0.970013 0.18509 0)
(1.27973 -0.1296 -3.06472e-20)
(1.31171 -0.113327 1.18172e-20)
(1.01105 -0.0102593 -7.07929e-21)
(1.03647 -0.0131053 0)
(1.03715 -0.00934088 -3.50641e-22)
(1.03075 -0.00743119 2.81904e-24)
(1.13457 -0.0469925 0)
(1.07727 -0.00344478 0)
(1.01601 0.0127415 5.01387e-21)
(1.2694 -0.0507434 8.65752e-21)
(0.724919 -0.0991509 1.04612e-19)
(0.904393 -0.0227405 -7.41105e-21)
(1.04364 0.0012598 1.04401e-21)
(1.0697 0.0314555 -4.80247e-21)
(1.03531 -0.0243063 0)
(1.21791 -0.0674805 -1.53234e-20)
(1.27822 -0.0937859 0)
(0.98609 -0.0468563 -7.35619e-21)
(1.02171 0.0113159 1.0558e-20)
(1.20434 -0.236422 0)
(1.04371 -0.00667728 -1.47893e-20)
(1.02868 0.0133045 2.01498e-21)
(1.26683 -0.215482 1.38552e-20)
(1.04743 0.0187977 -1.06163e-20)
(1.43668 -0.117521 -4.30663e-20)
(1.03324 -0.0194733 1.32098e-20)
(1.16969 -0.0451496 0)
(1.10299 -0.00851578 6.81998e-21)
(1.04302 -0.000409368 0)
(1.32389 0.187279 8.74091e-21)
(1.04176 0.00853907 -3.7526e-21)
(1.01552 -0.0107239 0)
(1.01993 -0.00717104 3.68659e-21)
(1.21726 -0.0707723 1.12567e-20)
(1.09098 0.0390204 -1.17468e-21)
(0.0237784 0.01411 0)
(1.22943 -0.189349 -9.70897e-21)
(1.03599 -0.0139967 0)
(1.41528 0.0115289 -2.9197e-20)
(1.04233 -0.00761934 -1.12454e-20)
(1.02834 -0.0340265 -7.46117e-21)
(1.4578 -0.0557679 3.38817e-20)
(0.771188 -0.0118897 0)
(1.02798 -0.021235 0)
(1.46763 -0.327455 0)
(0.961817 -0.0057102 -3.12088e-22)
(1.32066 -0.109509 -4.58647e-20)
(0.979662 0.0403157 0)
(1.0349 -0.0162652 -4.71289e-21)
(1.13566 -0.315275 -5.08889e-20)
(1.03175 -0.0140354 -1.7562e-20)
(1.11768 -0.00276375 -2.22812e-22)
(1.34786 0.483176 2.70758e-20)
(1.04053 -0.0155373 0)
(1.01385 0.276365 -1.61197e-19)
(1.24527 -0.0749215 1.49391e-20)
(0.846931 0.015419 0)
(0.99385 0.0149443 -5.1276e-21)
(1.00162 -0.114883 3.71917e-21)
(1.02755 -0.016681 1.34239e-20)
(1.17161 0.000164936 5.81135e-22)
(1.33051 -0.215077 0)
(1.38518 0.25562 0)
(1.12019 0.0229452 -1.69845e-20)
(1.39069 -0.0685625 2.91941e-20)
(1.07253 -0.0110309 1.16751e-20)
(1.32555 -0.0801834 -1.59212e-21)
(1.01591 0.0356896 1.47226e-20)
(0.998415 -0.0302567 0)
(1.05001 -0.0252568 1.10834e-21)
(1.45867 0.0654954 -8.44522e-20)
(1.02783 -0.013927 -3.34174e-21)
(1.18988 -0.133038 0)
(1.31518 -0.0465115 0)
(1.42851 -0.0276766 -5.28294e-20)
(1.00179 -0.0133791 -6.21234e-21)
(1.14057 -0.0256231 -1.23486e-22)
(0.892365 0.0194278 1.19785e-20)
(1.15357 0.0487541 2.6195e-22)
(1.17989 0.0985186 -1.6672e-20)
(1.01559 0.0136439 9.2883e-21)
(1.30432 -0.180989 0)
(1.02812 -0.000435742 0)
(1.09531 0.0400079 7.64368e-21)
(1.2342 -0.187513 -4.43282e-21)
(1.15854 0.114788 4.05013e-21)
(1.05112 0.0548739 -1.09862e-19)
(1.06794 0.00176643 -2.78586e-21)
(1.01974 0.0242521 6.30012e-21)
(1.00583 0.0218821 0)
(0.906163 -0.063739 7.05883e-20)
(1.13734 -0.0949728 -9.05503e-21)
(1.47364 -0.231513 -2.09259e-20)
(1.03503 0.00269731 -8.25312e-21)
(0.855907 0.0409167 1.50645e-21)
(-0.0370488 0.161222 0)
(0.837094 0.00211109 1.94873e-21)
(0.81375 -0.00356006 0)
(1.1068 0.0609374 -8.52587e-23)
(1.04982 0.0380239 0)
(1.33187 0.291808 1.41784e-20)
(1.00851 -0.0324038 -3.1331e-20)
(1.01219 0.0424154 2.3689e-21)
(1.15721 -0.0285741 0)
(1.10005 0.0329041 0)
(0.833528 -0.0048453 0)
(1.03701 -0.00724404 -4.34847e-21)
(1.20028 -0.0765548 8.30981e-21)
(1.06659 0.106948 -2.6218e-20)
(1.00838 -0.00869316 0)
(1.11466 -0.0164335 -2.95426e-21)
(1.02141 0.0042013 2.15707e-21)
(1.03597 0.00931211 -1.19292e-21)
(1.01737 0.00693198 5.68852e-21)
(1.14492 -0.0419298 1.03514e-22)
(0.0798572 0.15665 0)
(1.06333 0.0123224 -1.29541e-20)
(1.03438 0.0110194 1.54382e-21)
(0.818253 0.0512111 -5.61282e-21)
(1.26959 0.162535 -8.68419e-22)
(1.01813 0.00715716 3.1822e-21)
(1.06737 0.0301088 1.46009e-20)
(0.984391 0.0286721 0)
(1.10098 -0.195535 1.3711e-20)
(1.01966 -0.00612903 0)
(1.01725 -0.00950674 1.16389e-20)
(0.94805 0.286639 1.29269e-19)
(0.891505 -0.0206653 0)
(0.826676 0.114011 0)
(-0.18604 0.0664155 -9.89256e-20)
(1.30488 0.0916211 -1.65552e-20)
(0.801619 0.00801793 0)
(1.38399 -0.128959 0)
(1.02495 0.0128567 0)
(1.28249 0.0200811 1.65389e-20)
(-0.0592462 -0.160256 0)
(-0.0656294 0.219831 4.81492e-20)
(1.17138 -0.00251223 1.00627e-19)
(1.0085 0.0465778 2.27284e-21)
(0.847503 -0.0350738 0)
(1.03177 -0.000284445 1.23529e-20)
(0.881677 -0.00692938 0)
(0.912674 -0.0348284 -1.08674e-19)
(1.00909 0.0245989 1.70835e-20)
(1.01376 -0.000192113 3.72179e-21)
(1.05649 0.0660397 6.61405e-21)
(0.976115 0.0562288 -8.91481e-21)
(1.00228 0.00915521 -3.16757e-21)
(1.15101 -0.33239 3.70601e-22)
(0.994796 -0.0203393 0)
(1.0215 0.0376271 -1.10913e-20)
(0.841243 -0.00935022 -9.61262e-21)
(1.41144 -0.128802 2.41732e-21)
(0.842 0.0235875 0)
(1.10866 -0.127095 0)
(1.01323 -0.00310664 4.21427e-21)
(1.41229 0.176704 1.39928e-20)
(1.09152 0.00529423 6.55205e-21)
(1.00626 0.0407441 1.80401e-20)
(1.0623 -0.179331 -6.95921e-20)
(0.81375 0.0174331 1.72239e-20)
(1.12539 -0.0113984 5.69456e-21)
(1.35969 0.00307872 -4.83838e-21)
(1.02264 -0.0125667 -6.55663e-21)
(1.26181 -0.0261019 4.14616e-21)
(-0.212513 0.0469965 7.30335e-20)
(1.20627 -0.00375782 0)
(0.786428 0.004525 0)
(1.07497 0.031173 -5.37633e-21)
(1.12988 -0.0955422 1.15884e-20)
(0.304553 0.0571541 0)
(0.997138 -0.0133904 4.81217e-22)
(1.03883 -0.0104907 -2.98617e-21)
(1.02807 0.00362636 3.42867e-21)
(1.07451 -0.025142 -4.66592e-21)
(0.990298 0.0439963 1.61832e-21)
(1.02746 0.00268971 2.63413e-21)
(1.01733 -0.0115262 0)
(0.408887 -0.0307463 0)
(1.04572 -0.0555056 0)
(1.27295 0.0475317 -4.07231e-20)
(-0.0755896 -0.158311 5.55919e-20)
(1.02993 0.0325121 -2.34827e-23)
(1.03848 0.00314671 0)
(0.804584 -0.00582988 -1.09753e-20)
(1.00561 -0.0016964 1.63294e-21)
(0.00524276 -0.0425927 -1.69297e-19)
(1.05098 0.0657147 -6.81846e-20)
(0.789453 0.00884896 0)
(1.00027 -0.00212793 0)
(0.920149 0.00872585 1.01826e-20)
(1.08741 -0.0956679 6.56773e-21)
(1.30336 0.378002 1.15977e-20)
(1.02823 -0.0026928 -6.67889e-23)
(1.01308 -0.00908896 -5.04923e-21)
(1.0225 -0.0124313 0)
(1.38708 0.402215 -6.32624e-20)
(0.796465 0.0169559 0)
(1.00438 -0.017334 -4.02486e-21)
(1.02759 0.0172753 -1.3837e-21)
(0.760524 0.0130967 0)
(1.09191 -0.00747909 0)
(0.30545 0.0767968 -5.89515e-20)
(1.04969 -0.027548 -6.13764e-21)
(1.00167 0.013791 2.07559e-21)
(0.976072 -0.0141605 0)
(0.749336 0.00590657 0)
(1.00573 -0.0176438 -3.54128e-21)
(0.771334 -0.0340094 1.65598e-22)
(1.19975 -0.102304 2.00108e-22)
(0.991181 -0.0177449 -2.91719e-21)
(0.978824 -0.0315784 -2.76976e-21)
(1.03366 -0.00210703 6.13483e-22)
(1.02969 -0.0059412 6.29325e-23)
(0.768326 0.0181819 7.15313e-21)
(1.00564 0.00459878 4.99395e-22)
(1.02183 0.00015271 0)
(1.03296 0.00307764 0)
(0.788517 -9.51927e-05 0)
(1.03367 0.00072101 0)
(1.03524 -0.00159158 -9.35353e-22)
(1.03029 -0.000640281 0)
(1.02371 -0.000374488 0)
(1.02084 0.00629889 0)
(1.0134 0.00552556 0)
(-0.0260301 -0.0646979 5.41458e-20)
(1.06222 -0.00280619 4.19061e-23)
(1.00682 0.00568143 0)
(1.19662 0.175774 4.00616e-21)
(1.02684 0.0191605 9.588e-22)
(1.05652 0.0383742 4.49966e-21)
(0.995246 1.52388e-05 3.05552e-21)
(1.02962 -0.000589722 0)
(0.763751 0.0348047 7.72145e-21)
(1.05175 0.0405987 8.67097e-21)
(1.02922 -0.0075972 0)
(1.00563 -0.0159064 -1.67465e-21)
(1.01051 -0.0138669 1.99236e-21)
(0.941899 0.0175608 -1.51401e-20)
(1.00941 0.0146736 3.7538e-21)
(1.0131 0.0164168 -4.22036e-21)
(1.03216 0.0165868 0)
(1.00266 0.00600787 -1.78384e-20)
(1.02467 -0.0138057 -3.12422e-21)
(1.0075 0.0160266 6.90731e-21)
(1.01033 0.00889704 0)
(-0.00872163 -0.0216456 0)
(0.935705 0.0954692 -1.57503e-20)
(1.05393 0.00364933 0)
(1.09315 -0.103873 -4.46523e-21)
(1.00754 -0.0164552 3.96982e-22)
(1.02064 0.0042057 4.05663e-21)
(0.990871 0.0162524 -1.71373e-21)
(1.37207 0.0859957 1.18346e-19)
(1.02678 -0.305511 5.13741e-20)
(1.01158 -0.0103942 -6.45176e-22)
(1.05083 0.00244166 0)
(1.02821 -0.0153266 0)
(0.894694 0.0228066 -2.5328e-20)
(1.2127 -0.253425 -1.12367e-20)
(1.00304 -0.00310734 0)
(1.00815 0.00916116 9.19857e-21)
(0.965329 0.00446422 0)
(1.02441 0.00638169 4.49912e-21)
(1.02069 -0.00468071 -1.07096e-20)
(0.905945 0.0276771 -5.68597e-21)
(1.02555 0.00314273 0)
(1.03437 0.0328939 -4.63034e-22)
(1.04099 0.0180664 3.30522e-21)
(1.00816 -0.00291647 -5.49803e-21)
(1.03384 0.0012591 -2.82868e-21)
(1.00085 0.00637706 0)
(1.0843 0.0267804 0)
(1.03302 0.00304624 3.92604e-21)
(1.0286 -0.00878256 -4.54483e-21)
(1.01946 -0.00900395 4.70869e-21)
(1.02382 0.0111447 -2.85008e-21)
(1.02238 -0.0119278 3.61136e-22)
(1.02591 -0.00374143 0)
(0.436738 -0.140491 1.49362e-20)
(1.24402 -0.0155323 -1.92932e-20)
(1.04616 -0.00310055 -8.00148e-21)
(0.876854 0.0219845 1.60086e-20)
(1.44441 -0.0543953 2.72373e-20)
(1.01391 -0.250548 6.75052e-20)
(1.0337 -0.0131 -4.01342e-21)
(1.02999 0.00332139 -3.39776e-22)
(-0.131404 -0.165484 -9.79417e-21)
(0.992008 -0.00276502 0)
(1.03739 -0.0845227 -1.49559e-20)
(0.855575 -0.0142699 8.19064e-21)
(1.01421 0.00405976 5.59799e-21)
(1.03258 0.0227915 -1.03789e-21)
(0.794852 -0.00809799 2.26642e-21)
(1.41212 -0.355235 -1.57682e-20)
(1.00449 0.0195815 0)
(1.02839 0.00315147 -1.62548e-21)
(1.06737 0.00311028 -2.3978e-21)
(1.03538 0.00599204 0)
(1.02173 0.00602487 -5.34615e-21)
(1.06447 -0.0040769 3.42383e-21)
(0.992586 -0.0107732 1.45907e-20)
(1.05958 -0.0402387 -1.02481e-20)
(1.03249 -0.00585176 2.73314e-21)
(-0.0996923 0.0183361 0)
(0.840326 0.0611891 -3.07035e-20)
(1.04074 -0.0124806 0)
(0.984832 0.0744658 -1.83513e-20)
(1.00208 0.0602911 0)
(1.10629 -0.0160842 4.21918e-21)
(1.00121 0.0463503 0)
(1.02759 0.0141474 0)
(1.40297 -0.0660171 2.10058e-20)
(0.779623 -0.0714788 0)
(1.03102 -0.0142095 1.70097e-20)
(1.03753 -0.0121902 4.09551e-22)
(1.01719 -0.0121571 2.88166e-21)
(1.11766 -0.180476 1.31644e-21)
(1.22152 0.11491 -1.19422e-20)
(0.998844 0.00976211 1.16691e-20)
(1.03994 0.0209893 0)
(1.06807 -0.019693 0)
(1.031 0.0152952 2.02837e-21)
(1.12395 -0.0845208 0)
(1.49921 0.140776 -3.52673e-20)
(1.03204 -0.00212163 3.73276e-22)
(1.03275 -0.00286154 1.62473e-20)
(1.12674 0.153334 -3.15368e-25)
(-0.0317987 0.0509441 0)
(-0.0402177 -0.110956 0)
(0.246309 0.004216 -6.16971e-20)
(-0.11121 -0.174374 0)
(0.998433 -0.0180564 -8.94026e-21)
(1.06858 -0.00413742 -3.35331e-21)
(1.05264 -0.0308432 -8.83493e-21)
(1.04399 -0.0549305 -2.36865e-21)
(1.08864 -0.0925202 0)
(0.968287 0.0170912 -2.32599e-21)
(1.01242 -0.00359777 0)
(1.01159 0.00724575 1.44093e-21)
(0.538698 -0.109618 0)
(1.01449 -0.00876749 -3.49989e-22)
(1.04304 0.02987 0)
(1.00014 -0.0161044 0)
(0.914729 0.310911 3.78031e-20)
(0.993747 -0.00977151 -1.67898e-21)
(1.02957 -0.00171996 1.02989e-21)
(1.02173 0.0027501 -8.40888e-21)
(0.282792 -0.126293 0)
(1.00996 -0.0109412 -1.91871e-20)
(1.0692 0.0699053 5.55276e-21)
(1.03235 -0.00730812 3.2449e-22)
(0.99024 -0.0244815 8.64165e-21)
(-0.148757 -0.0560543 -1.16844e-19)
(1.04504 0.0414003 0)
(-0.0358606 0.0599179 0)
(1.04636 0.0365213 1.22266e-20)
(0.971559 -0.0221577 -9.29916e-21)
(1.05799 -0.00738033 -8.49604e-21)
(1.02423 -0.0225915 0)
(1.04461 -0.00739901 6.92781e-21)
(1.11844 -0.224282 -1.30899e-20)
(0.620334 -0.0356763 -1.08762e-20)
(1.05904 -0.00737518 -4.0164e-21)
(1.04365 -0.0144916 -6.45772e-22)
(0.809558 -0.0968758 -1.72391e-21)
(1.02466 -0.0235707 -1.88013e-20)
(1.04817 0.052041 0)
(1.01092 0.00397051 0)
(1.05308 -0.058298 -3.18569e-21)
(1.04553 0.0531329 -5.01912e-21)
(0.805754 -0.120054 3.98568e-20)
(1.1893 -0.0723694 -1.03526e-20)
(1.05258 0.0342528 1.16642e-20)
(0.717898 -0.00469788 6.83993e-21)
(0.8472 0.272417 -7.47943e-20)
(0.510758 -0.0739393 -2.18633e-20)
(1.19358 0.167562 -6.89694e-21)
(1.23657 -0.473391 7.24383e-21)
(1.16574 0.174281 -6.76178e-21)
(1.08555 -0.0738939 3.7754e-21)
(0.919456 -0.217569 8.81114e-20)
(0.336424 0.23064 0)
(1.01908 -0.00177442 -6.41154e-22)
(0.622452 0.063979 2.31328e-20)
(1.03652 0.0232366 -1.05793e-20)
(1.03147 -0.0221057 7.37492e-21)
(1.07809 -0.0198909 0)
(0.963171 -0.0497355 0)
(1.18949 -0.0762901 0)
(1.02675 0.0856443 8.66058e-21)
(1.17894 0.0316044 -9.78105e-21)
(1.02972 -0.0349229 6.47594e-21)
(0.808148 0.0238261 0)
(0.89053 0.0141347 0)
(0.893313 -0.00975747 -1.1209e-22)
(0.803432 -0.0212846 0)
(1.02653 0.0125951 0)
(1.02454 -0.0259503 2.45272e-20)
(0.914114 -0.0506454 0)
(1.03807 -0.0285255 0)
(1.04153 -0.0135157 0)
(1.18791 0.188579 8.13872e-21)
(1.10948 0.133955 -1.83254e-21)
(0.956636 -0.015585 6.27044e-21)
(1.31899 -0.387206 -1.202e-19)
(0.902571 -0.0896683 -1.85253e-20)
(1.04191 0.00914599 5.62371e-21)
(1.01829 0.0143694 0)
(0.267732 -0.105095 0)
(-0.206352 0.0460384 0)
(1.07924 -0.0566398 6.48898e-21)
(1.33928 -0.261553 -3.5743e-20)
(1.07013 0.100248 0)
(1.05749 0.0104947 -9.23488e-21)
(0.683631 -0.234844 0)
(1.50031 -0.111126 8.60964e-20)
(0.422961 0.534043 8.94122e-20)
(0.346308 -0.0482684 0)
(1.13231 -0.267167 1.29027e-19)
(0.842143 0.350281 0)
(0.730967 0.0278768 5.604e-25)
(1.09725 0.141189 0)
(0.0745747 0.116094 1.04496e-20)
(0.976853 -0.0446044 0)
(1.09967 -0.0929607 3.12707e-21)
(-0.335805 -0.080116 -1.03864e-20)
(1.06424 -0.000643114 2.73341e-21)
(1.02289 -0.0140244 -7.81288e-21)
(0.559624 -0.503042 -8.64119e-20)
(1.01259 -0.00853377 -1.82609e-21)
(1.1932 -0.0979178 1.92193e-21)
(1.22451 0.228857 -6.71103e-21)
(1.10568 -0.144931 1.18628e-20)
(1.10503 -0.0458565 1.33199e-21)
(0.148593 -0.249926 -2.88714e-20)
(0.191525 0.111852 -1.14206e-20)
(1.02698 0.0275368 2.28416e-21)
(1.04709 -0.00406951 0)
(1.00167 0.000758822 -5.70029e-21)
(1.41755 -0.420376 9.35478e-20)
(1.0272 -0.0699737 -6.97361e-20)
(1.47327 0.0378972 9.77744e-20)
(1.0387 -0.0108262 6.51187e-21)
(1.01197 -0.0208345 1.52034e-20)
(1.01591 -0.0266933 0)
(1.18662 -0.0424092 0)
(1.06365 -0.0576234 -6.03753e-21)
(1.08299 -0.032974 -3.79868e-21)
(1.07221 -0.114071 -1.21579e-20)
(1.0443 0.034125 -1.01129e-20)
(1.35635 0.0754553 -4.08598e-20)
(0.594163 0.0209757 0)
(1.01079 -0.0225316 1.58867e-20)
(1.11503 0.193113 0)
(1.03832 -0.00245891 -6.54074e-21)
(1.16159 0.0034666 0)
(1.08205 -0.0250056 1.07437e-20)
(1.21745 0.00575793 1.45385e-20)
(1.0163 -0.0218559 0)
(0.0712013 -0.0275458 1.7608e-19)
(0.879543 -0.205702 -6.91031e-20)
(1.41019 0.190082 -3.13646e-20)
(-0.284018 -0.0467601 5.38107e-20)
(1.12993 0.073459 3.49947e-25)
(1.02491 -0.00353366 -2.00852e-21)
(-0.207224 0.0382436 -5.60337e-20)
(-0.0545167 0.11707 -3.52747e-20)
(1.00859 -0.0332808 0)
(-0.0285996 -0.0412949 0)
(1.14762 0.287322 0)
(0.110344 -0.101065 0)
(1.1015 0.021129 0)
(0.167749 0.0369989 0)
(1.08067 0.0424219 0)
(1.10331 0.189083 0)
(1.02092 0.0465549 -6.2713e-21)
(0.588296 -0.286798 -2.34005e-20)
(-0.318191 0.000518729 0)
(1.24795 -0.0544298 7.26081e-20)
(1.01457 -0.0123209 1.48678e-21)
(1.29807 0.273403 0)
(-0.0374265 -0.0442758 0)
(1.16702 -0.00154542 3.96444e-22)
(1.14369 -0.0303744 2.20051e-23)
(1.18585 0.377179 0)
(0.358225 -0.101199 7.1137e-20)
(1.10569 0.0450175 6.97864e-22)
(0.260932 -0.0515904 -5.89337e-20)
(-0.0614695 0.0581713 -4.3883e-20)
(-0.0278442 0.0515118 1.10398e-19)
(0.839474 0.266136 -2.19576e-20)
(1.04033 0.0146364 1.89015e-21)
(1.05031 0.0475591 -1.32632e-20)
(1.04039 -0.0118553 0)
(1.04935 -0.0586905 -1.9392e-20)
(1.07802 0.113863 1.96949e-21)
(-0.0249384 -0.00969269 1.17846e-19)
(1.01138 -0.0806214 -5.44075e-20)
(0.98234 0.0112682 1.03507e-20)
(1.02539 -0.0140716 -2.61483e-21)
(0.0934066 -0.0332098 3.86835e-20)
(0.27742 -0.0361216 -5.42154e-20)
(0.500369 -0.0534397 -6.4564e-20)
(1.02577 0.0394708 1.45994e-20)
(-0.0567259 -0.0350543 0)
(1.01554 0.0322663 6.71192e-21)
(1.03913 -0.0507443 2.35977e-20)
(1.05635 -0.0597172 -2.27537e-20)
(1.25805 0.211553 0)
(1.49903 -0.175021 8.48213e-20)
(1.03053 -0.016409 -3.43407e-21)
(-0.0254006 -0.0530543 -3.92819e-20)
(0.57342 0.020041 0)
(1.0251 0.0113422 -4.74217e-21)
(1.08227 0.0311798 1.71105e-21)
(1.07193 -0.26354 -2.07237e-21)
(1.13284 0.00320156 -3.70691e-22)
(1.10741 0.0491504 0)
(1.19799 -0.152869 -1.6793e-20)
(-0.170937 -0.14764 -9.02113e-20)
(1.22053 -0.0115271 1.89269e-20)
(1.11701 0.157937 -9.1514e-21)
(1.04252 0.00957801 1.15662e-20)
(-0.040612 -0.0768645 1.81858e-20)
(-0.0364951 0.086074 -8.88676e-20)
(0.986476 0.212401 0)
(0.868396 0.293744 0)
(1.13695 0.0819267 -8.49162e-21)
(1.04129 0.032324 8.14944e-21)
(1.02455 0.0210682 0)
(0.878038 0.112736 6.56986e-20)
(0.87701 0.0632905 -1.5726e-20)
(1.05711 0.0744323 0)
(1.05621 0.0155792 0)
(1.17339 0.256426 0)
(1.01947 0.00325522 0)
(0.992162 0.00510368 2.33642e-21)
(-0.0427158 0.0523608 4.7938e-20)
(1.01587 0.0141524 5.49972e-21)
(1.46998 -0.148865 -9.72772e-20)
(1.04313 0.0115107 -4.3099e-21)
(0.159886 -0.198629 0)
(1.03544 -0.0361841 0)
(0.92129 -0.0306729 -2.5493e-21)
(0.627156 0.00496763 -7.77245e-20)
(0.10073 0.0337742 6.20235e-20)
(1.02738 0.00990927 2.93706e-21)
(0.769712 -0.273141 0)
(0.720239 -0.0883045 0)
(1.00338 0.014908 0)
(0.558325 0.532127 3.86245e-20)
(-0.0358936 0.0887067 -4.01526e-20)
(1.02485 0.00113555 -1.18682e-21)
(-0.0489623 -0.0680157 7.47543e-20)
(1.00221 0.00983043 2.30857e-21)
(1.2044 0.296042 1.27989e-20)
(1.1185 -0.0525429 6.92671e-21)
(0.51124 -0.171677 3.69785e-20)
(1.0076 0.0172702 3.44601e-21)
(1.03013 -0.0279452 0)
(0.595619 0.285617 0)
(1.02296 0.000777162 3.37107e-21)
(-0.370859 -0.0205124 0)
(0.834011 0.0147202 2.66872e-21)
(0.605744 -0.414604 -3.48741e-21)
(0.2805 0.0508542 -1.39943e-19)
(1.13915 -0.206892 2.43276e-20)
(1.03243 0.360788 8.51525e-21)
(0.962985 0.0105719 0)
(1.05659 -0.0112616 6.8489e-23)
(0.929974 0.021764 0)
(1.03244 0.00283537 1.38852e-22)
(0.4971 -0.0130605 0)
(0.71921 0.14552 0)
(0.972985 0.00114555 -5.30557e-21)
(1.453 0.0979926 -1.84265e-20)
(1.03646 0.00352154 2.33819e-21)
(0.518335 -0.484936 0)
(1.14555 -0.130682 1.45597e-21)
(0.816709 0.385537 6.2031e-20)
(-0.0290716 0.0176392 1.56214e-21)
(1.14467 -0.0887751 5.38053e-21)
(1.20487 -0.0177553 -1.11225e-20)
(1.0085 -0.00770208 7.62555e-22)
(0.963406 0.00359454 -3.6777e-21)
(0.0868042 0.0184712 5.01722e-20)
(-0.0519158 0.0277394 -6.64153e-20)
(-0.455101 -0.0476809 0)
(-0.299752 0.0249625 0)
(1.19007 -0.602443 3.46189e-20)
(1.08618 -0.0177157 -1.29971e-21)
(0.902065 -0.462784 -4.77673e-20)
(1.00316 0.0304351 -1.52392e-20)
(1.42741 0.14964 4.70056e-20)
(0.630492 0.439069 0)
(0.251536 0.424898 -1.03488e-19)
(0.611169 0.489756 0)
(0.316171 -0.0659351 0)
(1.12577 -0.458019 0)
(-0.100471 0.131067 -1.19428e-21)
(1.19664 -0.0336572 0)
(0.972363 0.15619 2.07858e-20)
(0.613786 0.709409 2.13361e-20)
(1.08819 0.177068 -1.11742e-20)
(-0.0277399 -0.15793 -1.28954e-19)
(0.958551 0.124639 3.10578e-20)
(0.497754 0.152786 -1.67427e-20)
(1.20342 0.0607284 0)
(1.4016 0.331798 5.41682e-20)
(1.24935 0.565209 2.08764e-20)
(0.221054 -0.0306308 -3.01773e-20)
(1.1604 0.0639473 4.50549e-20)
(0.969892 0.0180681 3.1769e-21)
(0.968659 -0.000963227 -1.50087e-21)
(0.00213368 -0.034874 0)
(0.633664 -0.636689 -2.82525e-20)
(0.624106 0.215085 0)
(0.199315 -0.155712 0)
(-0.0567728 0.116359 0)
(0.00969503 -0.179223 -5.00882e-20)
(1.17589 -0.0577287 -6.22121e-21)
(0.00186754 0.131536 0)
(-0.0556023 0.148564 0)
(1.3985 0.0182531 -9.14941e-20)
(-0.0286221 -0.111509 5.79328e-20)
(0.116983 0.238183 -9.50725e-20)
(0.472861 0.0142183 0)
(0.16638 -0.271632 7.71117e-20)
(1.13141 -0.230821 0)
(1.00689 -0.265799 0)
(0.0445446 -0.149681 1.23485e-19)
(1.15274 0.0113836 -3.85935e-23)
(1.13693 0.327459 2.11015e-20)
(0.310755 0.0270918 5.90686e-20)
(0.396917 -0.506715 -3.34467e-20)
(1.46217 -0.0409126 0)
(1.32451 0.157557 2.94629e-20)
(1.29159 0.18385 -3.61668e-20)
(0.102323 0.0900278 -2.22384e-20)
(-0.144069 0.0668991 0)
(1.08961 -0.041267 -1.84395e-20)
(1.11932 -0.223273 -1.19711e-20)
(0.569922 -0.389304 0)
(1.11916 -0.159211 -2.20062e-20)
(0.0287443 -0.0431827 0)
(0.775557 0.0301138 0)
(1.27958 0.135578 2.47393e-20)
(1.05618 -0.0111065 5.20097e-22)
(1.10323 0.753443 -5.23398e-21)
(0.22072 -0.370106 1.23896e-19)
(1.02138 0.013282 -1.19816e-21)
(1.19073 0.0767406 2.62853e-21)
(-0.0792089 0.186258 4.21033e-20)
(0.815234 0.753643 1.60225e-20)
(1.35836 -0.341993 -1.38427e-20)
(0.313678 0.152659 7.37878e-20)
(1.03467 0.000873103 0)
(0.520659 -0.199903 -9.78305e-21)
(0.900639 -0.627531 3.14588e-21)
(0.938347 0.661729 -3.50623e-20)
(0.609933 -0.0260567 -7.1951e-20)
(1.07914 -0.0144493 -6.16814e-21)
(1.06557 -0.0790271 6.05239e-21)
(1.05528 0.0421801 5.56143e-21)
(1.08714 0.0991813 8.63789e-22)
(1.13159 -0.107758 0)
(1.01321 0.0853057 1.98842e-20)
(0.935881 0.474212 0)
(1.0563 0.0650701 -5.7113e-21)
(1.17082 0.103775 -3.24282e-21)
(0.809991 0.272946 0)
(0.580053 0.113745 1.33489e-19)
(0.917741 0.72612 -7.41873e-22)
(1.11204 0.274693 -1.62066e-20)
(1.02572 0.0179186 1.14228e-20)
(0.425297 0.500608 0)
(1.30283 -0.450708 0)
(1.02335 -0.269838 3.29844e-21)
(1.3105 0.505602 0)
(-0.00455643 0.0757356 -5.78071e-20)
(1.28898 -0.391743 -1.69356e-20)
(1.1837 0.504286 0)
(0.459825 0.226066 1.59448e-19)
(1.1869 0.318558 -1.52612e-19)
(0.800657 -0.617161 -2.36709e-20)
(1.05084 0.0591626 2.75851e-21)
(0.996155 0.151009 1.06578e-19)
(1.11254 0.148247 3.62513e-20)
(1.10333 0.716278 -4.35972e-21)
(0.885473 -0.415321 6.05692e-20)
(1.41717 0.101352 5.18896e-20)
(1.09272 -0.0155823 -8.19093e-22)
(0.0169954 -0.0729548 1.05708e-19)
(1.07822 -0.686776 3.2758e-20)
(0.860992 -0.703163 4.75097e-20)
(0.245836 -0.322315 0)
(0.984637 -0.151392 6.68681e-20)
(0.370223 0.314741 -4.14422e-19)
(-0.212707 -0.0639141 3.79563e-20)
(0.374641 0.0595056 3.18242e-20)
(0.731782 -0.0535633 -8.40458e-20)
(1.09822 0.53153 0)
(1.00769 0.215259 6.86938e-20)
(1.04813 0.0360399 2.11858e-21)
(0.932668 0.45131 -7.99701e-20)
(0.775421 -0.711085 -7.39302e-21)
(0.916516 0.0223012 -4.51332e-20)
(0.989971 0.491647 0)
(1.05382 0.120276 7.5776e-21)
(1.38083 -0.492022 1.51332e-20)
(1.22965 -0.324908 1.12314e-20)
(-0.182312 -0.0884901 4.03099e-20)
(0.191589 0.00934968 -1.72432e-20)
(0.956266 -0.121503 -5.4029e-20)
(0.362869 0.536594 0)
(0.924064 0.0193999 3.59652e-20)
(1.19849 0.647131 1.05584e-19)
(-0.122617 -0.142086 1.94577e-19)
(-0.107865 0.173942 -3.61526e-20)
(-0.218208 -0.0925141 5.01502e-20)
(1.05465 -0.0121584 -2.81565e-21)
(1.14701 -0.453232 0)
(1.05688 -0.711866 -3.56089e-20)
(0.713889 0.360433 0)
(0.0875075 -0.170376 -1.42987e-19)
(1.01179 0.024444 5.62094e-21)
(-0.0830408 -0.0970589 -3.38721e-20)
(1.01044 0.027837 -1.1918e-20)
(0.141456 0.0372812 7.48828e-20)
(0.947389 0.123121 0)
(1.28501 0.0829077 3.99421e-20)
(0.163132 0.0888611 -3.61228e-20)
(-0.449878 -0.155931 -4.78359e-20)
(-0.405761 0.059636 0)
(0.101619 -0.0149657 0)
(1.22766 0.0377857 -1.26494e-20)
(0.423652 -0.00732432 1.74127e-19)
(1.26359 -0.706603 -2.9826e-20)
(1.03946 -0.287369 1.54224e-20)
(1.11514 0.24077 -2.19198e-20)
(0.359113 -0.544009 1.32314e-19)
(1.59498 0.220502 -4.68155e-20)
(0.111931 -0.11939 4.11116e-20)
(0.213253 0.310118 1.85254e-19)
(0.136294 -0.0602973 -1.53626e-19)
(0.937494 -0.470996 -4.10166e-20)
(1.50072 0.366412 4.8208e-20)
(0.556953 -0.660639 4.57772e-20)
(1.10002 -0.0596596 -6.30942e-21)
(0.45531 -0.0306446 7.822e-20)
(1.26679 0.284536 -6.35744e-20)
(0.679212 0.652135 -3.55708e-20)
(1.34434 -0.607341 0)
(1.47895 0.515529 4.28321e-20)
(1.04428 -0.506326 -1.24931e-20)
(1.43466 0.607716 -1.36956e-19)
(1.09671 0.0869215 0)
(-0.0547435 0.168918 0)
(1.28559 0.737011 0)
(1.02147 2.34663e-05 -6.51041e-21)
(0.717047 -0.283112 -1.94986e-19)
(0.469078 -0.0707674 0)
(-0.0504892 0.210403 -3.56442e-20)
(1.02987 -0.241641 8.99464e-20)
(-0.438192 -0.00380458 0)
(0.318511 0.0335098 1.16502e-20)
(1.08655 0.0497441 0)
(1.48643 0.241687 0)
(1.0806 0.0703292 -2.95331e-21)
(0.355198 -0.281888 0)
(1.04012 0.125938 3.02468e-20)
(1.36878 0.265124 0)
(-0.149627 0.153838 -2.45962e-21)
(0.799251 -0.372191 0)
(1.55594 0.297277 -7.13477e-20)
(1.25944 0.350688 -1.01229e-20)
(0.860645 0.655969 -8.51321e-21)
(1.06742 0.13161 -7.53869e-20)
(0.99329 -0.194926 -4.47895e-20)
(1.50037 0.259986 4.17259e-20)
(1.16608 0.00400035 0)
(0.558448 -0.0530318 0)
)
;

boundaryField
{
    FrontBack
    {
        type            empty;
    }
    Top
    {
        type            noSlip;
    }
    In
    {
        type            fixedValue;
        value           uniform (1 0 0);
    }
    Bottom
    {
        type            noSlip;
    }
    Out
    {
        type            zeroGradient;
    }
    circle
    {
        type            noSlip;
    }
}


// ************************************************************************* //
