/*--------------------------------*- C++ -*----------------------------------*\
| =========                 |                                                 |
| \\      /  F ield         | OpenFOAM: The Open Source CFD Toolbox           |
|  \\    /   O peration     | Version:  2412                                  |
|   \\  /    A nd           | Website:  www.openfoam.com                      |
|    \\/     M anipulation  |                                                 |
\*---------------------------------------------------------------------------*/
FoamFile
{
    version     2.0;
    format      ascii;
    arch        "LSB;label=32;scalar=64";
    class       volVectorField;
    location    "0.6";
    object      cellDisplacement;
}
// * * * * * * * * * * * * * * * * * * * * * * * * * * * * * * * * * * * * * //

dimensions      [0 1 0 0 0 0 0];

internalField   nonuniform List<vector> 
256
(
(0.00107994 0.0180338 0)
(-0.00168944 0.0179458 0)
(-0.00402827 0.0166198 0)
(-0.0055061 0.0142896 0)
(-0.00596304 0.0114682 0)
(-0.00541758 0.00847219 0)
(-0.00401443 0.00546657 0)
(-0.00205921 0.00260226 0)
(0.00244725 0.0534732 0)
(-0.00527088 0.0529935 0)
(-0.0118162 0.0494451 0)
(-0.0162145 0.0434548 0)
(-0.0179845 0.0359933 0)
(-0.0171117 0.0278779 0)
(-0.0139097 0.0196343 0)
(-0.00896181 0.0115799 0)
(0.0030184 0.0870321 0)
(-0.00901568 0.0860781 0)
(-0.0192569 0.0807405 0)
(-0.0263545 0.0718373 0)
(-0.0297011 0.0608128 0)
(-0.0291629 0.0486526 0)
(-0.0251427 0.0362047 0)
(-0.0182748 0.023835 0)
(0.00280643 0.118995 0)
(-0.0129961 0.117397 0)
(-0.0264957 0.110556 0)
(-0.0361921 0.0995352 0)
(-0.0412915 0.0857868 0)
(-0.0416134 0.070522 0)
(-0.0375744 0.0547905 0)
(-0.0297709 0.0389663 0)
(0.00183996 0.149422 0)
(-0.0173248 0.147202 0)
(-0.0337755 0.139162 0)
(-0.0459287 0.126525 0)
(-0.0529069 0.110736 0)
(-0.0545013 0.0931638 0)
(-0.0511125 0.0749776 0)
(-0.0432649 0.0565351 0)
(4.41886e-05 0.178549 0)
(-0.0221085 0.175637 0)
(-0.0412415 0.166618 0)
(-0.0557726 0.152795 0)
(-0.0647375 0.135557 0)
(-0.0679485 0.116351 0)
(-0.0657456 0.0964008 0)
(-0.0586174 0.0760722 0)
(-0.00262032 0.206419 0)
(-0.0274987 0.20285 0)
(-0.0491388 0.193104 0)
(-0.0659156 0.178337 0)
(-0.0769641 0.160108 0)
(-0.0820728 0.139831 0)
(-0.0814921 0.118683 0)
(-0.0757483 0.0971109 0)
(-0.00631343 0.233211 0)
(-0.0336577 0.228969 0)
(-0.0575882 0.218538 0)
(-0.0765837 0.203143 0)
(-0.0897918 0.184274 0)
(-0.0970071 0.163324 0)
(-0.098428 0.141461 0)
(-0.0946241 0.11915 0)
(-0.0111567 0.258977 0)
(-0.0407746 0.25405 0)
(-0.0668555 0.243027 0)
(-0.0879939 0.227159 0)
(-0.103432 0.207898 0)
(-0.112946 0.1866 0)
(-0.116685 0.164355 0)
(-0.115286 0.141698 0)
(-0.0174188 0.283776 0)
(-0.0490459 0.278057 0)
(-0.0771235 0.266488 0)
(-0.100405 0.25029 0)
(-0.118153 0.230835 0)
(-0.130137 0.209385 0)
(-0.136491 0.187013 0)
(-0.137888 0.164219 0)
(-0.0252736 0.307465 0)
(-0.0587368 0.300923 0)
(-0.0887299 0.28886 0)
(-0.11412 0.27241 0)
(-0.134253 0.252833 0)
(-0.14889 0.231349 0)
(-0.158137 0.208969 0)
(-0.162646 0.18613 0)
(-0.0351404 0.329939 0)
(-0.0702154 0.322529 0)
(-0.102021 0.309956 0)
(-0.12951 0.293265 0)
(-0.152118 0.273571 0)
(-0.169586 0.252019 0)
(-0.181968 0.229561 0)
(-0.189943 0.206627 0)
(-0.0474271 0.350975 0)
(-0.0839773 0.342592 0)
(-0.117445 0.329479 0)
(-0.147049 0.312464 0)
(-0.172215 0.292565 0)
(-0.192708 0.270727 0)
(-0.208485 0.247939 0)
(-0.220211 0.224588 0)
(-0.0628437 0.369858 0)
(-0.100419 0.360414 0)
(-0.135399 0.346595 0)
(-0.167031 0.32917 0)
(-0.194889 0.308841 0)
(-0.218611 0.286495 0)
(-0.238236 0.262793 0)
(-0.254077 0.238363 0)
(-0.0813876 0.385297 0)
(-0.119657 0.374589 0)
(-0.155864 0.359938 0)
(-0.189493 0.341781 0)
(-0.220095 0.320676 0)
(-0.247386 0.29716 0)
(-0.271158 0.271885 0)
(-0.291582 0.24517 0)
(-0.102281 0.393721 0)
(-0.14038 0.3818 0)
(-0.177127 0.366202 0)
(-0.212168 0.347077 0)
(-0.245166 0.32461 0)
(-0.275803 0.299016 0)
(-0.303783 0.270543 0)
(-0.328838 0.239464 0)
(-0.00198693 0.00263816 0)
(-0.00387319 0.00482517 0)
(-0.00583461 0.00642855 0)
(-0.00803073 0.00744312 0)
(-0.0104092 0.00772952 0)
(-0.0128314 0.00719848 0)
(-0.0151476 0.00585039 0)
(-0.0169686 0.00372305 0)
(-0.00887489 0.0114933 0)
(-0.0143274 0.0170686 0)
(-0.0200996 0.020927 0)
(-0.026382 0.022957 0)
(-0.0330833 0.0229628 0)
(-0.0398801 0.02078 0)
(-0.0461064 0.0163822 0)
(-0.0508724 0.0100295 0)
(-0.018358 0.023342 0)
(-0.0270393 0.0311503 0)
(-0.0362811 0.0361999 0)
(-0.0463208 0.0383905 0)
(-0.0568764 0.0374076 0)
(-0.0672843 0.0330525 0)
(-0.0766056 0.0254266 0)
(-0.0835684 0.0150418 0)
(-0.0303037 0.0378219 0)
(-0.0419082 0.046765 0)
(-0.054351 0.0520623 0)
(-0.0676979 0.0535521 0)
(-0.0815258 0.050935 0)
(-0.0949667 0.0440406 0)
(-0.106637 0.0330705 0)
(-0.115102 0.018845 0)
(-0.0445691 0.0545147 0)
(-0.0588198 0.0635556 0)
(-0.0741011 0.0681776 0)
(-0.0903906 0.0682694 0)
(-0.107009 0.063482 0)
(-0.122762 0.0537162 0)
(-0.136138 0.039363 0)
(-0.14547 0.0214924 0)
(-0.0610297 0.0729865 0)
(-0.0776748 0.0811777 0)
(-0.0955164 0.0843229 0)
(-0.114268 0.0823324 0)
(-0.133081 0.0749048 0)
(-0.150615 0.0620383 0)
(-0.165128 0.0443099 0)
(-0.174807 0.0229939 0)
(-0.0795929 0.0927697 0)
(-0.0984177 0.0992661 0)
(-0.118415 0.100166 0)
(-0.139236 0.0955388 0)
(-0.159775 0.0850895 0)
(-0.178447 0.0689444 0)
(-0.193492 0.0478633 0)
(-0.203129 0.0233231 0)
(-0.100188 0.113372 0)
(-0.120937 0.117382 0)
(-0.142854 0.115446 0)
(-0.165266 0.107668 0)
(-0.186922 0.0938653 0)
(-0.206234 0.0743165 0)
(-0.22129 0.0499453 0)
(-0.230541 0.0223818 0)
(-0.122834 0.134284 0)
(-0.145284 0.135099 0)
(-0.168712 0.129753 0)
(-0.192273 0.118414 0)
(-0.214568 0.100996 0)
(-0.233876 0.0779745 0)
(-0.24851 0.0504209 0)
(-0.257067 0.0200413 0)
(-0.147592 0.15493 0)
(-0.171448 0.151891 0)
(-0.196028 0.142619 0)
(-0.220213 0.127343 0)
(-0.242524 0.106155 0)
(-0.261382 0.079659 0)
(-0.275178 0.049064 0)
(-0.282796 0.0160689 0)
(-0.174642 0.17462 0)
(-0.199601 0.167135 0)
(-0.224829 0.153459 0)
(-0.249069 0.133965 0)
(-0.270874 0.108886 0)
(-0.288727 0.0790046 0)
(-0.301294 0.0455452 0)
(-0.307652 0.0101898 0)
(-0.204266 0.192509 0)
(-0.229924 0.179984 0)
(-0.255283 0.161486 0)
(-0.278957 0.137577 0)
(-0.299575 0.108598 0)
(-0.315844 0.0754651 0)
(-0.326698 0.0394254 0)
(-0.331437 0.00204734 0)
(-0.236876 0.207383 0)
(-0.262755 0.189197 0)
(-0.287499 0.165574 0)
(-0.309787 0.137077 0)
(-0.328441 0.104394 0)
(-0.34244 0.0683265 0)
(-0.351068 0.030119 0)
(-0.353907 -0.00891814 0)
(-0.272978 0.217211 0)
(-0.298202 0.19293 0)
(-0.321322 0.163923 0)
(-0.341154 0.131108 0)
(-0.356906 0.0950589 0)
(-0.367951 0.0566261 0)
(-0.373865 0.0167595 0)
(-0.374474 -0.0233808 0)
(-0.312419 0.218871 0)
(-0.335651 0.188083 0)
(-0.355541 0.154139 0)
(-0.371577 0.117657 0)
(-0.383426 0.0791833 0)
(-0.390825 0.0393343 0)
(-0.393601 -0.00118293 0)
(-0.391715 -0.0416552 0)
(-0.350726 0.206079 0)
(-0.369237 0.17071 0)
(-0.384191 0.133696 0)
(-0.395446 0.0953952 0)
(-0.402892 0.0561754 0)
(-0.406458 0.0164146 0)
(-0.40611 -0.0235044 0)
(-0.401851 -0.0631969 0)
)
;

boundaryField
{
    walls
    {
        type            cellMotion;
        value           uniform (0 0 0);
    }
    cylinder
    {
        type            cellMotion;
        value           nonuniform List<vector> 
16
(
(-0.102281 0.393721 0)
(-0.14038 0.3818 0)
(-0.177127 0.366202 0)
(-0.212168 0.347077 0)
(-0.245166 0.32461 0)
(-0.275803 0.299016 0)
(-0.303783 0.270543 0)
(-0.328838 0.239464 0)
(-0.350726 0.206079 0)
(-0.369237 0.17071 0)
(-0.384191 0.133696 0)
(-0.395446 0.0953952 0)
(-0.402892 0.0561754 0)
(-0.406458 0.0164146 0)
(-0.40611 -0.0235044 0)
(-0.401851 -0.0631969 0)
)
;
    }
    outlet
    {
        type            cellMotion;
        value           uniform (0 0 0);
    }
    inlet
    {
        type            cellMotion;
        value           nonuniform List<vector> 0();
    }
    frontAndBack
    {
        type            empty;
    }
    procBoundary3to1
    {
        type            processor;
        value           nonuniform List<vector> 
16
(
(0.0037334 0.0169767 0)
(0.0100546 0.0508973 0)
(0.0150774 0.0836106 0)
(0.0188887 0.115152 0)
(0.0215367 0.14553 0)
(0.0230358 0.174862 0)
(0.0233573 0.203182 0)
(0.0224108 0.230577 0)
(0.0200515 0.257096 0)
(0.0160726 0.282804 0)
(0.0101714 0.307651 0)
(0.00202703 0.33142 0)
(-0.00896598 0.353893 0)
(-0.0234151 0.374467 0)
(-0.0416779 0.391713 0)
(-0.0631969 0.401851 0)
)
;
    }
    procBoundary3to2
    {
        type            processor;
        value           nonuniform List<vector> 
16
(
(-0.0180064 0.00108351 0)
(-0.0533565 0.00246683 0)
(-0.0868881 0.00304415 0)
(-0.118799 0.00285114 0)
(-0.149235 0.00188809 0)
(-0.178338 0.000113874 0)
(-0.20624 -0.0025498 0)
(-0.233028 -0.00621468 0)
(-0.258844 -0.0110699 0)
(-0.283648 -0.0172948 0)
(-0.307383 -0.0251695 0)
(-0.329877 -0.0350122 0)
(-0.350937 -0.0473442 0)
(-0.369845 -0.0627591 0)
(-0.385291 -0.0813523 0)
(-0.393721 -0.102281 0)
)
;
    }
}


// ************************************************************************* //
