/*--------------------------------*- C++ -*----------------------------------*\
| =========                 |                                                 |
| \\      /  F ield         | OpenFOAM: The Open Source CFD Toolbox           |
|  \\    /   O peration     | Version:  2412                                  |
|   \\  /    A nd           | Website:  www.openfoam.com                      |
|    \\/     M anipulation  |                                                 |
\*---------------------------------------------------------------------------*/
FoamFile
{
    version     2.0;
    format      ascii;
    arch        "LSB;label=32;scalar=64";
    class       surfaceScalarField;
    location    "0.6";
    object      meshPhi;
}
// * * * * * * * * * * * * * * * * * * * * * * * * * * * * * * * * * * * * * //

dimensions      [0 3 -1 0 0 0 0];

internalField   nonuniform List<scalar> 
480
(
0.00306926
-0.00156562
0.00335082
0.000724603
0.00333398
0.00266084
0.00311828
0.0039379
0.00285758
0.00461014
0.00235644
0.00452388
0.00158796
0.00359293
0.00269214
0.00125138
0.00898066
-0.00298805
0.00967186
0.00114211
0.00963216
0.00452048
0.00911068
0.00677854
0.00840126
0.00799073
0.00709517
0.00798172
0.00511521
0.00673011
0.00534088
0.00416423
0.0144531
-0.0041758
0.0153346
0.00129887
0.0152248
0.00563758
0.0145844
0.0086051
0.0136459
0.0103134
0.0118977
0.0105466
0.0092925
0.00937519
0.00783301
0.00787749
0.0195415
-0.00497892
0.0204865
0.00138135
0.0203625
0.00641443
0.0197637
0.00995114
0.0187376
0.0120063
0.0168421
0.0124688
0.0140537
0.0115818
0.0101195
0.0123794
0.0243362
-0.00545526
0.0253161
0.00138257
0.0253521
0.00684244
0.0249488
0.0108098
0.0238756
0.0131504
0.0220752
0.0139182
0.0193943
0.0134448
0.0121957
0.0176868
0.028807
-0.0056847
0.0298417
0.00132078
0.0301685
0.00697164
0.0300822
0.0112027
0.0292533
0.0138846
0.0277814
0.0150983
0.025285
0.0149844
0.0139276
0.0237497
0.0328948
-0.00574097
0.0340106
0.00124474
0.0347843
0.00692065
0.0351383
0.011261
0.0348701
0.0142024
0.0338645
0.0157781
0.0315811
0.0159512
0.0151091
0.0303825
0.0368406
-0.00566522
0.038039
0.00115795
0.0392808
0.00672693
0.0401305
0.010989
0.040411
0.0139749
0.0398805
0.0157067
0.0380188
0.016093
0.0155669
0.0373983
0.0408671
-0.00531092
0.0421696
0.00112872
0.0436988
0.00633725
0.0449529
0.0103455
0.0456864
0.0132204
0.0455933
0.0149321
0.0444171
0.0155031
0.0154132
0.0447328
0.0449003
-0.0048414
0.0462904
0.000964177
0.047965
0.00564444
0.0495532
0.00933531
0.0507583
0.0120498
0.0512331
0.0137508
0.0509886
0.0145457
0.0148219
0.0524294
0.0487969
-0.00427324
0.0502114
0.000770314
0.0520387
0.00487471
0.0539714
0.0081665
0.0557399
0.0106738
0.0570978
0.0123745
0.0579491
0.0133534
0.0138786
0.0604485
0.0525862
-0.00346094
0.0540527
0.000737413
0.0560719
0.00422435
0.0584051
0.00710851
0.0608679
0.00936514
0.0632502
0.010957
0.0652795
0.0119837
0.0126368
0.0687513
0.0563956
-0.0021943
0.0579804
0.00110352
0.0602884
0.00389758
0.0631438
0.00626124
0.0663947
0.00815455
0.0698034
0.009573
0.073159
0.0105802
0.0112508
0.0777132
0.0601713
-0.000483705
0.0619482
0.00176498
0.0646793
0.00371647
0.0681743
0.00541275
0.0723175
0.00682839
0.0768696
0.00796084
0.0817075
0.00881881
0.00942854
0.0875357
0.0634533
0.0013305
0.0654527
0.0024179
0.0686121
0.00340496
0.0727847
0.00429277
0.0778593
0.00506962
0.0836458
0.00572679
0.0899765
0.00624423
0.00666142
0.0970103
0.0614208
0.0638465
0.067396
0.0719364
0.0773072
0.0833328
0.0897816
0.0964672
0.00156075
-0.00431893
0.00196695
-0.00584802
0.00217025
-0.00717539
0.00228917
-0.0077907
0.00227364
-0.00778295
0.00228279
-0.00722039
0.00218187
-0.00613759
-0.0045503
0.00483597
-0.00925052
0.00595737
-0.0115712
0.00656133
-0.0137322
0.00690155
-0.0146454
0.00693361
-0.0144877
0.00701653
-0.0134501
0.00685775
-0.0114813
-0.00850247
0.00847814
-0.0145177
0.0100586
-0.0170606
0.0110409
-0.0196116
0.0115642
-0.0206459
0.0117052
-0.020212
0.0118411
-0.0185498
0.0118141
-0.0156839
-0.011599
0.0126241
-0.0199241
0.0143796
-0.0223279
0.0156232
-0.0248172
0.0162798
-0.0256437
0.016547
-0.0248378
0.016543
-0.0225245
0.0165831
-0.0186867
-0.0136703
0.0174313
-0.0252739
0.019084
-0.027316
0.0203696
-0.0293452
0.0210753
-0.0297365
0.0213991
-0.0284418
0.0212003
-0.0254638
0.021205
-0.0208264
-0.0150208
0.023042
-0.0302599
0.0243597
-0.0319772
0.0253283
-0.0332266
0.0258722
-0.0327476
0.0260587
-0.0307094
0.025843
-0.0271313
0.025873
-0.0220211
-0.0156832
0.0293171
-0.034333
0.0301866
-0.0357215
0.0305842
-0.0362268
0.0306974
-0.0349028
0.0306137
-0.0320772
0.0304588
-0.0279019
0.0304787
-0.0223821
-0.0157402
0.035944
-0.0371655
0.0363315
-0.0381741
0.0362011
-0.0380905
0.0357916
-0.0361569
0.0353966
-0.0326957
0.0351343
-0.0279793
0.0349641
-0.022092
-0.0153021
0.0428276
-0.038629
0.0426484
-0.0392557
0.042024
-0.0385478
0.0411916
-0.0361322
0.0404229
-0.032312
0.0398182
-0.0272396
0.039378
-0.0211414
-0.0144075
0.0500156
-0.0385968
0.0491212
-0.0388314
0.0478909
-0.0375035
0.0466003
-0.0346841
0.0454128
-0.0306836
0.044424
-0.0255754
0.0437482
-0.0195821
-0.0131189
0.0574456
-0.0366695
0.0556938
-0.0365714
0.0537276
-0.0347826
0.0518657
-0.0317494
0.0502554
-0.0277539
0.0489605
-0.0228828
0.0480802
-0.0173318
-0.0114404
0.064991
-0.0325947
0.0623452
-0.032106
0.0596465
-0.0301008
0.0571644
-0.0271166
0.0550943
-0.023405
0.0534759
-0.0191122
0.052344
-0.0143242
-0.00932545
0.0729987
-0.0264852
0.0693513
-0.0256869
0.0657933
-0.0235816
0.062549
-0.0208051
0.0599435
-0.0176527
0.0579313
-0.0142784
0.0564969
-0.0105775
-0.00665765
0.0818186
-0.0183081
0.0768471
-0.0174717
0.072117
-0.0154929
0.0679208
-0.0132381
0.0645532
-0.010876
0.0620394
-0.00848585
0.0603458
-0.0059958
-0.00339213
0.09023
-0.00784512
0.0836524
-0.00713014
0.0776503
-0.00597165
0.072475
-0.00477517
0.0683051
-0.00355659
0.0652942
-0.00233499
0.0634446
-0.00112785
6.78523e-05
0.0883381
0.0807648
0.074207
0.0688043
0.0646516
0.0618406
0.060384
)
;

boundaryField
{
    walls
    {
        type            calculated;
        value           uniform 0;
    }
    cylinder
    {
        type            calculated;
        value           nonuniform List<scalar> 
16
(
1.36561e-11
-1.6769e-11
-5.56385e-12
1.0119e-11
-2.85002e-11
2.06452e-11
3.19705e-11
-1.61861e-11
1.61854e-11
-3.19704e-11
-2.06466e-11
2.84983e-11
-1.0121e-11
5.56231e-12
1.67673e-11
-1.36581e-11
)
;
    }
    outlet
    {
        type            calculated;
        value           uniform 0;
    }
    inlet
    {
        type            calculated;
        value           nonuniform List<scalar> 0();
    }
    frontAndBack
    {
        type            empty;
    }
    procBoundary3to1
    {
        type            processor;
        value           nonuniform List<scalar> 
16
(
-0.00250924
-0.0077121
-0.013047
-0.0181843
-0.0230102
-0.0275668
-0.0318905
-0.0360454
-0.0401057
-0.0441129
-0.0480409
-0.0519019
-0.055759
-0.0594959
-0.0626985
-0.0602293
)
;
    }
    procBoundary3to2
    {
        type            processor;
        value           nonuniform List<scalar> 
16
(
0.00231651
0.00715198
0.0121867
0.0171068
0.0217965
0.0263062
0.0306801
0.0349778
0.0392498
0.0434996
0.0477005
0.0518197
0.055848
0.0596498
0.0627999
0.0602524
)
;
    }
}


// ************************************************************************* //
