/*--------------------------------*- C++ -*----------------------------------*\
| =========                 |                                                 |
| \\      /  F ield         | OpenFOAM: The Open Source CFD Toolbox           |
|  \\    /   O peration     | Version:  2412                                  |
|   \\  /    A nd           | Website:  www.openfoam.com                      |
|    \\/     M anipulation  |                                                 |
\*---------------------------------------------------------------------------*/
FoamFile
{
    version     2.0;
    format      ascii;
    arch        "LSB;label=32;scalar=64";
    class       pointVectorField;
    location    "0.6";
    object      pointDisplacement;
}
// * * * * * * * * * * * * * * * * * * * * * * * * * * * * * * * * * * * * * //

dimensions      [0 1 0 0 0 0 0];

internalField   nonuniform List<vector> 
578
(
(0 0 0)
(0 0 0)
(0 0 0)
(0 0 0)
(0 0 0)
(0 0 0)
(0 0 0)
(0 0 0)
(0 0 0)
(0.00434805 0.0348838 0)
(-0.000851491 0.035662 0)
(-0.00570892 0.0343058 0)
(-0.00941081 0.0310022 0)
(-0.0114417 0.0263385 0)
(-0.0116405 0.0209724 0)
(-0.0101235 0.0153635 0)
(-0.00722982 0.00980355 0)
(-0.00533376 0.00690133 0)
(0.00766455 0.0687915 0)
(-0.00220097 0.0699403 0)
(-0.0113471 0.0673633 0)
(-0.0184271 0.0614156 0)
(-0.0225859 0.0530633 0)
(-0.0235129 0.0433617 0)
(-0.0213501 0.0331071 0)
(-0.0165819 0.0228168 0)
(-0.0134414 0.0173376 0)
(0.00995849 0.101235 0)
(-0.00404533 0.102418 0)
(-0.0169483 0.0987362 0)
(-0.0270893 0.0907096 0)
(-0.0334048 0.0795317 0)
(-0.0354654 0.0664762 0)
(-0.0333966 0.0525673 0)
(-0.0277124 0.0384695 0)
(-0.0239705 0.0307329 0)
(0.0112743 0.13231 0)
(-0.00641987 0.133292 0)
(-0.0226556 0.128618 0)
(-0.035611 0.118983 0)
(-0.0440978 0.105683 0)
(-0.0476008 0.0900875 0)
(-0.0462263 0.0733951 0)
(-0.0404604 0.0563507 0)
(-0.036748 0.0466817 0)
(0.0116166 0.162124 0)
(-0.00939083 0.162737 0)
(-0.0286204 0.157189 0)
(-0.0441913 0.14631 0)
(-0.0548526 0.131439 0)
(-0.0600449 0.113988 0)
(-0.0598536 0.0952588 0)
(-0.0547189 0.0760383 0)
(-0.051625 0.0647429 0)
(0.0109533 0.190784 0)
(-0.0130512 0.190894 0)
(-0.0350049 0.184582 0)
(-0.0530278 0.172745 0)
(-0.0658619 0.156733 0)
(-0.0729506 0.137998 0)
(-0.0743408 0.117854 0)
(-0.0704357 0.0971133 0)
(-0.0684913 0.0844558 0)
(0.00920486 0.218376 0)
(-0.0175293 0.217889 0)
(-0.041979 0.210892 0)
(-0.0623163 0.198309 0)
(-0.0773266 0.181497 0)
(-0.0864768 0.161919 0)
(-0.0897746 0.140862 0)
(-0.0876066 0.119149 0)
(-0.0872771 0.105337 0)
(0.00624191 0.244992 0)
(-0.0229834 0.243826 0)
(-0.0497271 0.236169 0)
(-0.0722639 0.222992 0)
(-0.0894614 0.205647 0)
(-0.10081 0.185556 0)
(-0.106289 0.16397 0)
(-0.106286 0.141712 0)
(-0.107971 0.126887 0)
(0.00187898 0.270687 0)
(-0.0296077 0.268736 0)
(-0.0584576 0.260426 0)
(-0.0831019 0.246763 0)
(-0.102505 0.229071 0)
(-0.11618 0.208709 0)
(-0.124084 0.186871 0)
(-0.126613 0.164364 0)
(-0.130641 0.148574 0)
(-0.00412228 0.295445 0)
(-0.0376278 0.292574 0)
(-0.0684161 0.2836 0)
(-0.0951007 0.269531 0)
(-0.11674 0.251614 0)
(-0.132868 0.231126 0)
(-0.143429 0.209208 0)
(-0.14881 0.18662 0)
(-0.15544 0.169804 0)
(-0.0120655 0.319137 0)
(-0.0473508 0.315229 0)
(-0.079932 0.305582 0)
(-0.1086 0.291139 0)
(-0.132505 0.273039 0)
(-0.151219 0.252466 0)
(-0.164656 0.2305 0)
(-0.173186 0.207854 0)
(-0.182634 0.189842 0)
(-0.02239 0.341573 0)
(-0.0591994 0.336522 0)
(-0.0934202 0.326151 0)
(-0.124009 0.311305 0)
(-0.150225 0.292982 0)
(-0.171659 0.27224 0)
(-0.188192 0.250084 0)
(-0.200156 0.227206 0)
(-0.212601 0.207693 0)
(-0.0356784 0.362311 0)
(-0.0736771 0.35597 0)
(-0.109315 0.34478 0)
(-0.141732 0.329438 0)
(-0.170295 0.310773 0)
(-0.194603 0.289673 0)
(-0.214507 0.267007 0)
(-0.230247 0.243444 0)
(-0.245839 0.221851 0)
(-0.0523507 0.380343 0)
(-0.0910892 0.372547 0)
(-0.127841 0.36039 0)
(-0.161947 0.344379 0)
(-0.192873 0.325127 0)
(-0.220238 0.303307 0)
(-0.243837 0.279601 0)
(-0.263748 0.254575 0)
(-0.282613 0.229913 0)
(-0.0721684 0.393153 0)
(-0.11095 0.383856 0)
(-0.148274 0.370636 0)
(-0.183674 0.353755 0)
(-0.216738 0.333544 0)
(-0.247118 0.310376 0)
(-0.274538 0.284666 0)
(-0.298849 0.256784 0)
(-0.320862 0.227416 0)
(-0.0829386 0.398746 0)
(-0.121623 0.388697 0)
(-0.159136 0.374904 0)
(-0.195117 0.3575 0)
(-0.229219 0.336654 0)
(-0.261113 0.312566 0)
(-0.290492 0.285467 0)
(-0.317074 0.255619 0)
(-0.340602 0.22331 0)
(0 0 0)
(0 0 0)
(0 0 0)
(0 0 0)
(0 0 0)
(0 0 0)
(0 0 0)
(0 0 0)
(0 0 0)
(0.00434805 0.0348838 0)
(-0.000851491 0.035662 0)
(-0.00570892 0.0343058 0)
(-0.00941081 0.0310022 0)
(-0.0114417 0.0263385 0)
(-0.0116405 0.0209724 0)
(-0.0101235 0.0153635 0)
(-0.00722982 0.00980355 0)
(-0.00533376 0.00690133 0)
(0.00766455 0.0687915 0)
(-0.00220097 0.0699403 0)
(-0.0113471 0.0673633 0)
(-0.0184271 0.0614156 0)
(-0.0225859 0.0530633 0)
(-0.0235129 0.0433617 0)
(-0.0213501 0.0331071 0)
(-0.0165819 0.0228168 0)
(-0.0134414 0.0173376 0)
(0.00995849 0.101235 0)
(-0.00404533 0.102418 0)
(-0.0169483 0.0987362 0)
(-0.0270893 0.0907096 0)
(-0.0334048 0.0795317 0)
(-0.0354654 0.0664762 0)
(-0.0333966 0.0525673 0)
(-0.0277124 0.0384695 0)
(-0.0239705 0.0307329 0)
(0.0112743 0.13231 0)
(-0.00641987 0.133292 0)
(-0.0226556 0.128618 0)
(-0.035611 0.118983 0)
(-0.0440978 0.105683 0)
(-0.0476008 0.0900875 0)
(-0.0462263 0.0733951 0)
(-0.0404604 0.0563507 0)
(-0.036748 0.0466817 0)
(0.0116166 0.162124 0)
(-0.00939083 0.162737 0)
(-0.0286204 0.157189 0)
(-0.0441913 0.14631 0)
(-0.0548526 0.131439 0)
(-0.0600449 0.113988 0)
(-0.0598536 0.0952588 0)
(-0.0547189 0.0760383 0)
(-0.051625 0.0647429 0)
(0.0109533 0.190784 0)
(-0.0130512 0.190894 0)
(-0.0350049 0.184582 0)
(-0.0530278 0.172745 0)
(-0.0658619 0.156733 0)
(-0.0729506 0.137998 0)
(-0.0743408 0.117854 0)
(-0.0704357 0.0971133 0)
(-0.0684913 0.0844558 0)
(0.00920486 0.218376 0)
(-0.0175293 0.217889 0)
(-0.041979 0.210892 0)
(-0.0623163 0.198309 0)
(-0.0773266 0.181497 0)
(-0.0864768 0.161919 0)
(-0.0897746 0.140862 0)
(-0.0876066 0.119149 0)
(-0.0872771 0.105337 0)
(0.00624191 0.244992 0)
(-0.0229834 0.243826 0)
(-0.0497271 0.236169 0)
(-0.0722639 0.222992 0)
(-0.0894614 0.205647 0)
(-0.10081 0.185556 0)
(-0.106289 0.16397 0)
(-0.106286 0.141712 0)
(-0.107971 0.126887 0)
(0.00187898 0.270687 0)
(-0.0296077 0.268736 0)
(-0.0584576 0.260426 0)
(-0.0831019 0.246763 0)
(-0.102505 0.229071 0)
(-0.11618 0.208709 0)
(-0.124084 0.186871 0)
(-0.126613 0.164364 0)
(-0.130641 0.148574 0)
(-0.00412228 0.295445 0)
(-0.0376278 0.292574 0)
(-0.0684161 0.2836 0)
(-0.0951007 0.269531 0)
(-0.11674 0.251614 0)
(-0.132868 0.231126 0)
(-0.143429 0.209208 0)
(-0.14881 0.18662 0)
(-0.15544 0.169804 0)
(-0.0120655 0.319137 0)
(-0.0473508 0.315229 0)
(-0.079932 0.305582 0)
(-0.1086 0.291139 0)
(-0.132505 0.273039 0)
(-0.151219 0.252466 0)
(-0.164656 0.2305 0)
(-0.173186 0.207854 0)
(-0.182634 0.189842 0)
(-0.02239 0.341573 0)
(-0.0591994 0.336522 0)
(-0.0934202 0.326151 0)
(-0.124009 0.311305 0)
(-0.150225 0.292982 0)
(-0.171659 0.27224 0)
(-0.188192 0.250084 0)
(-0.200156 0.227206 0)
(-0.212601 0.207693 0)
(-0.0356784 0.362311 0)
(-0.0736771 0.35597 0)
(-0.109315 0.34478 0)
(-0.141732 0.329438 0)
(-0.170295 0.310773 0)
(-0.194603 0.289673 0)
(-0.214507 0.267007 0)
(-0.230247 0.243444 0)
(-0.245839 0.221851 0)
(-0.0523507 0.380343 0)
(-0.0910892 0.372547 0)
(-0.127841 0.36039 0)
(-0.161947 0.344379 0)
(-0.192873 0.325127 0)
(-0.220238 0.303307 0)
(-0.243837 0.279601 0)
(-0.263748 0.254575 0)
(-0.282613 0.229913 0)
(-0.0721684 0.393153 0)
(-0.11095 0.383856 0)
(-0.148274 0.370636 0)
(-0.183674 0.353755 0)
(-0.216738 0.333544 0)
(-0.247118 0.310376 0)
(-0.274538 0.284666 0)
(-0.298849 0.256784 0)
(-0.320862 0.227416 0)
(-0.0829386 0.398746 0)
(-0.121623 0.388697 0)
(-0.159136 0.374904 0)
(-0.195117 0.3575 0)
(-0.229219 0.336654 0)
(-0.261113 0.312566 0)
(-0.290492 0.285467 0)
(-0.317074 0.255619 0)
(-0.340602 0.22331 0)
(0 0 0)
(0 0 0)
(0 0 0)
(0 0 0)
(0 0 0)
(0 0 0)
(0 0 0)
(0 0 0)
(-0.00724315 0.00898828 0)
(-0.0110162 0.0123094 0)
(-0.0150739 0.014448 0)
(-0.0194687 0.0152911 0)
(-0.0240505 0.0146921 0)
(-0.0285017 0.0125804 0)
(-0.0322978 0.00902261 0)
(-0.0348398 0.00434489 0)
(-0.0171351 0.0207607 0)
(-0.0244264 0.0263445 0)
(-0.0322636 0.0296341 0)
(-0.0406633 0.0304509 0)
(-0.0492864 0.0285761 0)
(-0.0574841 0.0239365 0)
(-0.0643148 0.0167428 0)
(-0.0687096 0.00766066 0)
(-0.0293931 0.0347788 0)
(-0.0398899 0.0415608 0)
(-0.051161 0.0450722 0)
(-0.0631084 0.0450953 0)
(-0.0751732 0.0413842 0)
(-0.0863926 0.0339215 0)
(-0.0955071 0.0231148 0)
(-0.101127 0.00995621 0)
(-0.043895 0.0506827 0)
(-0.0572953 0.0576633 0)
(-0.0716379 0.0605399 0)
(-0.0866636 0.0590851 0)
(-0.101581 0.0530681 0)
(-0.115149 0.0425686 0)
(-0.125867 0.0282072 0)
(-0.132187 0.0112755 0)
(-0.0605211 0.0680841 0)
(-0.0765324 0.0743363 0)
(-0.0935767 0.075803 0)
(-0.1112 0.0722731 0)
(-0.128386 0.0635583 0)
(-0.143687 0.0498743 0)
(-0.155417 0.0320499 0)
(-0.161996 0.0116245 0)
(-0.0791788 0.0865806 0)
(-0.0975148 0.0912643 0)
(-0.11687 0.0906184 0)
(-0.136607 0.0844917 0)
(-0.155503 0.0727647 0)
(-0.171949 0.0558025 0)
(-0.18417 0.0346283 0)
(-0.19066 0.0109694 0)
(-0.0997863 0.105732 0)
(-0.120168 0.108097 0)
(-0.141459 0.104733 0)
(-0.162821 0.0955642 0)
(-0.182871 0.0805712 0)
(-0.199896 0.0602768 0)
(-0.212144 0.0358802 0)
(-0.218263 0.0092314 0)
(-0.122315 0.12507 0)
(-0.144463 0.124452 0)
(-0.167297 0.117848 0)
(-0.189782 0.105257 0)
(-0.210429 0.0868014 0)
(-0.227508 0.0631694 0)
(-0.239381 0.0356956 0)
(-0.244897 0.00627864 0)
(-0.146797 0.144087 0)
(-0.170388 0.139872 0)
(-0.194331 0.129557 0)
(-0.217423 0.113244 0)
(-0.238118 0.0912048 0)
(-0.254767 0.0642804 0)
(-0.265915 0.0338937 0)
(-0.270613 0.00192826 0)
(-0.173331 0.162179 0)
(-0.198 0.153804 0)
(-0.222563 0.139367 0)
(-0.245701 0.119099 0)
(-0.265909 0.0934295 0)
(-0.281675 0.0633144 0)
(-0.291756 0.0302086 0)
(-0.295391 -0.00406139 0)
(-0.202122 0.178594 0)
(-0.227437 0.16554 0)
(-0.252067 0.146637 0)
(-0.274653 0.122262 0)
(-0.293788 0.0929859 0)
(-0.30817 0.0598512 0)
(-0.316794 0.0242901 0)
(-0.319106 -0.0119977 0)
(-0.233473 0.192295 0)
(-0.258898 0.174077 0)
(-0.282918 0.150436 0)
(-0.304227 0.121909 0)
(-0.321608 0.0891862 0)
(-0.33404 0.0533196 0)
(-0.340799 0.0156532 0)
(-0.341555 -0.02232 0)
(-0.267727 0.201698 0)
(-0.292483 0.177913 0)
(-0.314981 0.149416 0)
(-0.334111 0.116896 0)
(-0.348967 0.0810824 0)
(-0.358856 0.0429369 0)
(-0.363347 0.00362539 0)
(-0.362304 -0.035616 0)
(-0.304849 0.204277 0)
(-0.327728 0.174756 0)
(-0.347445 0.141684 0)
(-0.363306 0.105722 0)
(-0.374808 0.0675186 0)
(-0.381583 0.0278536 0)
(-0.383429 -0.0123907 0)
(-0.380341 -0.0523063 0)
(-0.342096 0.195888 0)
(-0.361234 0.161597 0)
(-0.376751 0.125158 0)
(-0.388382 0.0870397 0)
(-0.395933 0.0477188 0)
(-0.39927 0.00771483 0)
(-0.398332 -0.0324265 0)
(-0.393152 -0.0721538 0)
(-0.36085 0.188849 0)
(-0.377623 0.15257 0)
(-0.39076 0.114822 0)
(-0.400132 0.0759682 0)
(-0.405652 0.0363826 0)
(-0.407265 -0.00355346 0)
(-0.404955 -0.0434553 0)
(-0.398746 -0.0829386 0)
(0 0 0)
(0 0 0)
(0 0 0)
(0 0 0)
(0 0 0)
(0 0 0)
(0 0 0)
(0 0 0)
(-0.00724315 0.00898828 0)
(-0.0110162 0.0123094 0)
(-0.0150739 0.014448 0)
(-0.0194687 0.0152911 0)
(-0.0240505 0.0146921 0)
(-0.0285017 0.0125804 0)
(-0.0322978 0.00902261 0)
(-0.0348398 0.00434489 0)
(-0.0171351 0.0207607 0)
(-0.0244264 0.0263445 0)
(-0.0322636 0.0296341 0)
(-0.0406633 0.0304509 0)
(-0.0492864 0.0285761 0)
(-0.0574841 0.0239365 0)
(-0.0643148 0.0167428 0)
(-0.0687096 0.00766066 0)
(-0.0293931 0.0347788 0)
(-0.0398899 0.0415608 0)
(-0.051161 0.0450722 0)
(-0.0631084 0.0450953 0)
(-0.0751732 0.0413842 0)
(-0.0863926 0.0339215 0)
(-0.0955071 0.0231148 0)
(-0.101127 0.00995621 0)
(-0.043895 0.0506827 0)
(-0.0572953 0.0576633 0)
(-0.0716379 0.0605399 0)
(-0.0866636 0.0590851 0)
(-0.101581 0.0530681 0)
(-0.115149 0.0425686 0)
(-0.125867 0.0282072 0)
(-0.132187 0.0112755 0)
(-0.0605211 0.0680841 0)
(-0.0765324 0.0743363 0)
(-0.0935767 0.075803 0)
(-0.1112 0.0722731 0)
(-0.128386 0.0635583 0)
(-0.143687 0.0498743 0)
(-0.155417 0.0320499 0)
(-0.161996 0.0116245 0)
(-0.0791788 0.0865806 0)
(-0.0975148 0.0912643 0)
(-0.11687 0.0906184 0)
(-0.136607 0.0844917 0)
(-0.155503 0.0727647 0)
(-0.171949 0.0558025 0)
(-0.18417 0.0346283 0)
(-0.19066 0.0109694 0)
(-0.0997863 0.105732 0)
(-0.120168 0.108097 0)
(-0.141459 0.104733 0)
(-0.162821 0.0955642 0)
(-0.182871 0.0805712 0)
(-0.199896 0.0602768 0)
(-0.212144 0.0358802 0)
(-0.218263 0.0092314 0)
(-0.122315 0.12507 0)
(-0.144463 0.124452 0)
(-0.167297 0.117848 0)
(-0.189782 0.105257 0)
(-0.210429 0.0868014 0)
(-0.227508 0.0631694 0)
(-0.239381 0.0356956 0)
(-0.244897 0.00627864 0)
(-0.146797 0.144087 0)
(-0.170388 0.139872 0)
(-0.194331 0.129557 0)
(-0.217423 0.113244 0)
(-0.238118 0.0912048 0)
(-0.254767 0.0642804 0)
(-0.265915 0.0338937 0)
(-0.270613 0.00192826 0)
(-0.173331 0.162179 0)
(-0.198 0.153804 0)
(-0.222563 0.139367 0)
(-0.245701 0.119099 0)
(-0.265909 0.0934295 0)
(-0.281675 0.0633144 0)
(-0.291756 0.0302086 0)
(-0.295391 -0.00406139 0)
(-0.202122 0.178594 0)
(-0.227437 0.16554 0)
(-0.252067 0.146637 0)
(-0.274653 0.122262 0)
(-0.293788 0.0929859 0)
(-0.30817 0.0598512 0)
(-0.316794 0.0242901 0)
(-0.319106 -0.0119977 0)
(-0.233473 0.192295 0)
(-0.258898 0.174077 0)
(-0.282918 0.150436 0)
(-0.304227 0.121909 0)
(-0.321608 0.0891862 0)
(-0.33404 0.0533196 0)
(-0.340799 0.0156532 0)
(-0.341555 -0.02232 0)
(-0.267727 0.201698 0)
(-0.292483 0.177913 0)
(-0.314981 0.149416 0)
(-0.334111 0.116896 0)
(-0.348967 0.0810824 0)
(-0.358856 0.0429369 0)
(-0.363347 0.00362539 0)
(-0.362304 -0.035616 0)
(-0.304849 0.204277 0)
(-0.327728 0.174756 0)
(-0.347445 0.141684 0)
(-0.363306 0.105722 0)
(-0.374808 0.0675186 0)
(-0.381583 0.0278536 0)
(-0.383429 -0.0123907 0)
(-0.380341 -0.0523063 0)
(-0.342096 0.195888 0)
(-0.361234 0.161597 0)
(-0.376751 0.125158 0)
(-0.388382 0.0870397 0)
(-0.395933 0.0477188 0)
(-0.39927 0.00771483 0)
(-0.398332 -0.0324265 0)
(-0.393152 -0.0721538 0)
(-0.36085 0.188849 0)
(-0.377623 0.15257 0)
(-0.39076 0.114822 0)
(-0.400132 0.0759682 0)
(-0.405652 0.0363826 0)
(-0.407265 -0.00355346 0)
(-0.404955 -0.0434553 0)
(-0.398746 -0.0829386 0)
)
;

boundaryField
{
    walls
    {
        type            fixedValue;
        value           uniform (0 0 0);
    }
    cylinder
    {
        type            solidBodyMotionDisplacement;
        value           nonuniform List<vector> 
34
(
(-0.0829386 0.398746 0)
(-0.0829386 0.398746 0)
(-0.121623 0.388697 0)
(-0.121623 0.388697 0)
(-0.159136 0.374904 0)
(-0.159136 0.374904 0)
(-0.195117 0.3575 0)
(-0.195117 0.3575 0)
(-0.229219 0.336654 0)
(-0.229219 0.336654 0)
(-0.261113 0.312566 0)
(-0.261113 0.312566 0)
(-0.290492 0.285467 0)
(-0.290492 0.285467 0)
(-0.317074 0.255619 0)
(-0.317074 0.255619 0)
(-0.340602 0.22331 0)
(-0.340602 0.22331 0)
(-0.36085 0.188849 0)
(-0.36085 0.188849 0)
(-0.377623 0.15257 0)
(-0.377623 0.15257 0)
(-0.39076 0.114822 0)
(-0.39076 0.114822 0)
(-0.400132 0.0759682 0)
(-0.400132 0.0759682 0)
(-0.405652 0.0363826 0)
(-0.405652 0.0363826 0)
(-0.407265 -0.00355346 0)
(-0.407265 -0.00355346 0)
(-0.404955 -0.0434553 0)
(-0.404955 -0.0434553 0)
(-0.398746 -0.0829386 0)
(-0.398746 -0.0829386 0)
)
;
        solidBodyMotionFunction oscillatingRotatingMotion;
        oscillatingRotatingMotionCoeffs
        {
            origin          ( 0 0 0 );
            axis            ( 0 0 1 );
            omega           1.5;
            amplitude       ( 0 0 30 );
        }
    }
    outlet
    {
        type            fixedValue;
        value           uniform (0 0 0);
    }
    inlet
    {
        type            fixedValue;
        value           nonuniform List<vector> 0();
    }
    frontAndBack
    {
        type            empty;
    }
    procBoundary3to1
    {
        type            processor;
    }
    procBoundary3to2
    {
        type            processor;
    }
}


// ************************************************************************* //
