/*--------------------------------*- C++ -*----------------------------------*\
| =========                 |                                                 |
| \\      /  F ield         | OpenFOAM: The Open Source CFD Toolbox           |
|  \\    /   O peration     | Version:  2412                                  |
|   \\  /    A nd           | Website:  www.openfoam.com                      |
|    \\/     M anipulation  |                                                 |
\*---------------------------------------------------------------------------*/
FoamFile
{
    version     2.0;
    format      ascii;
    arch        "LSB;label=32;scalar=64";
    class       volVectorField;
    location    "1223.5";
    object      U;
}
// * * * * * * * * * * * * * * * * * * * * * * * * * * * * * * * * * * * * * //

dimensions      [0 1 -1 0 0 0 0];

internalField   nonuniform List<vector> 
808
(
(0.7562762537077559 -0.01752302451377898 0)
(1.031452794526441 -0.01255084317943675 0)
(1.112848206041207 -0.002039954721234074 -1.729251559560026e-20)
(1.085130065223814 0.01257220168844623 0)
(1.360874315971479 0.01273479249602738 -3.811291489978185e-19)
(1.03871383350952 -0.009435956129729129 -7.314181345456777e-20)
(1.014527580684274 -0.02059063412054187 -2.432527361937452e-20)
(1.079101999610589 -0.004939092111520914 9.023711498702329e-21)
(1.25275404223476 -0.0219243282020087 6.251118291354682e-20)
(1.085190997285302 0.008922544310790901 0)
(1.00790972213155 -0.01156047587813517 0)
(1.303773109900973 -0.05463480988703762 -3.455056704915594e-19)
(1.086383099101013 -0.001818413502024778 2.043746547185529e-20)
(0.6751582571710079 0.006369216077999947 0)
(1.27584131608721 -0.122124217528996 0)
(1.08191614841923 -0.0003757577109656433 -3.870794231163294e-20)
(1.225416254747519 -0.150771651119682 -9.662828050977962e-20)
(1.074365379869052 -0.0003943828633246102 3.208745201278217e-20)
(0.9888016559116092 0.00509628452302485 0)
(1.026901778262729 0.009443196052285083 0)
(1.034747581873403 -0.01549022831413155 0)
(0.9875969350801455 0.04543407385801763 0)
(1.051040862336079 -0.006161125220510379 5.818490809170809e-20)
(1.05382911770531 0.008420283230079999 0)
(0.9338046627843211 0.1996768788867608 4.561882475507992e-19)
(1.160782042367868 -0.0892878098046678 0)
(1.184723896278757 -0.02014607272567686 1.536664624968785e-19)
(1.077175752423294 0.009670787145084332 5.240821782170605e-20)
(1.083839338070652 0.001907309088820414 5.131596006835029e-21)
(1.071841554952291 0.03095523876664466 0)
(1.075334864131333 0.002661485565712401 -1.184767243936415e-20)
(1.033435737301409 0.00646506707307144 -1.870064957478027e-19)
(1.060053316148401 0.01451413593629755 -2.357510263559049e-20)
(1.088715129127471 0.005518808746026092 -2.938488198453276e-20)
(1.121515772512348 0.03668747489769926 0)
(0.7548422329673403 -0.1203618569882428 -4.551412928898411e-19)
(0.9546275592750982 -0.005758006703715565 0)
(1.068815204686479 0.0223001282261216 0)
(1.068811169558439 0.007203177013742015 0)
(1.073778300988526 0.008625257463597213 -2.816230957663276e-20)
(1.093274891180295 0.02295570618927195 1.075786264482866e-19)
(1.15023351004549 0.001869914732502371 2.10896851300191e-19)
(1.095650563637628 -0.00234606495946449 0)
(1.015228731634566 -0.009429263120846756 0)
(1.127467266908332 -0.09465307980889687 -1.643002358626395e-19)
(1.044058311807947 -0.01177136535896665 -8.393000061726744e-20)
(1.058250277827468 0.02667849414111542 -2.688392324354293e-20)
(1.229348972014028 -0.112506353306098 -5.561092556369723e-20)
(1.067527645171565 0.01207820643191432 -4.067994497882961e-20)
(1.256460325312011 0.01461208711116605 0)
(0.9973183202939965 -0.01882833133433245 2.195497041673731e-21)
(1.044709938144708 -0.002488268172361177 0)
(1.087335368299043 -0.002246439619003884 0)
(0.9982262168053768 0.0080074838077792 -1.910247551743916e-20)
(1.252293864108713 0.03242714256257685 -2.394837928681955e-19)
(1.063510988496237 0.01822366008526841 5.868408688713139e-20)
(0.9891359804378854 0.0113191981527032 0)
(1.014317682742109 -0.008107049773240419 2.563642250182414e-20)
(1.107252217934421 -0.001701184222692518 -1.152052075065186e-19)
(1.061438791763482 0.03131521639571124 0)
(-0.07661590284511238 -0.02184133508270542 7.764125796531397e-20)
(1.153808179614402 -0.05248542331070742 -1.842388341844337e-19)
(1.002762263287602 -0.006387618818164395 -2.816252899135422e-20)
(1.187569189168014 0.06470971562518585 -1.198398694876955e-19)
(0.9970309358402027 -0.0103060880545196 3.097651498536285e-20)
(1.083987839839652 -0.005471893221842949 0)
(1.247216432540356 0.09097078883330384 0)
(0.6960604417769176 0.003158976053527746 -7.431080059746806e-20)
(0.9885090349781133 -0.01569650136370188 -3.226727761901539e-20)
(1.456607995062421 -0.01999138859676768 4.389921712810962e-19)
(1.060619032543575 0.007588265461888966 -6.531989038716287e-20)
(1.364817885436188 0.09283098512572381 2.8375758467768e-19)
(1.054878927343572 0.006750353216945446 -1.926978734257459e-22)
(1.080928610916011 -0.01409431251100286 -2.705174446476926e-22)
(1.162757166322762 -0.2351744573780056 0)
(1.022495872685417 -0.01502781354997919 0)
(1.017683833022102 0.01804691148613764 -2.990038650293701e-20)
(1.389473740671374 0.3493631550623714 4.240279758653693e-19)
(1.097398401335635 -0.0422936751490574 9.577747315424112e-20)
(1.046851355659445 0.2111143855114566 2.396539900428573e-19)
(1.122411222246902 -0.06229116688054018 1.181793042099972e-19)
(0.9220393775178903 0.005197709735851644 0)
(0.9754000471743816 0.01856134757569473 0)
(1.003970202536566 -0.04842009436768501 3.194229161914539e-21)
(1.010307693003036 -0.01379142949325327 7.782690676804217e-21)
(1.03106121474283 0.02654912642237039 1.350431646619582e-20)
(1.525383175431239 0.03365506051112579 3.210293779533234e-19)
(1.291534608228186 0.0698859996692742 5.643592044355064e-19)
(1.072633233615569 0.003012071859783836 -8.798665217300246e-20)
(1.194194083918194 -0.09832045137851199 0)
(1.033965785995214 0.001628018661704008 1.285636455256603e-19)
(1.164549478461335 0.0199899990830444 -3.116989268463302e-19)
(1.001527355063539 0.03256080227001174 0)
(0.9996291981004944 0.00198163939939798 0)
(1.044171698058356 -0.0002308998651237253 8.016056013970503e-20)
(1.217594740139546 0.1029050325208405 4.020437468231193e-19)
(1.011157517392641 0.006949816652310996 0)
(1.087979467414956 -0.06895506447633939 -1.069923608490067e-19)
(1.150980209760329 0.03507065371906781 0)
(1.214808258879232 0.08885551272855748 -1.885474748107782e-19)
(1.108301644486965 -0.02884918631948764 -7.81238478441236e-20)
(1.027834938944799 0.0118565871419313 0)
(1.085338338992584 -0.004611308241095432 0)
(1.019958469533884 0.02633485048092307 7.826710848797605e-20)
(1.075064809423723 0.05592152469942457 -9.369254300433073e-21)
(1.10364951520821 -0.004309178594732966 6.446901404949055e-20)
(1.104157723996341 -0.09297747454366294 1.519026382927074e-19)
(0.9622404526079319 -0.0009621489103201468 0)
(1.066231542510136 0.03141059154457611 3.68329572731244e-20)
(1.167517014619361 -0.07681603886844501 2.251608998954667e-19)
(1.05346429823327 0.04685420763170938 -2.846761111156591e-20)
(1.023064058744889 0.0681778520893398 3.635471083341318e-20)
(1.09038661616912 0.02618787653095545 0)
(1.015581527274528 0.01361039819973053 0)
(1.028968085366711 0.00937118539322008 7.847462646267478e-20)
(0.9485396223825914 -0.03204983959844242 0)
(1.053141825012793 -0.005443426064492057 -7.383547964206557e-21)
(1.339368952040787 0.05557117442685797 -1.539882586059106e-19)
(1.079633319097318 -0.013244297121487 2.654790218894701e-20)
(0.7441530458405007 -0.001757445457827299 0)
(0.568214598290104 0.177005883070447 -1.09520803241168e-19)
(0.705954068096129 -0.002479467521012551 0)
(0.698956605595188 0.01465653916635355 0)
(1.077808297676851 0.003529955125443241 -6.434860438995115e-22)
(0.9906480193872755 0.01444129571843672 0)
(1.280958214554473 0.1220168906709107 2.557015915849581e-19)
(1.012209541834219 -0.02795028579723381 -7.349454099105243e-21)
(1.041217585220514 0.01641899360497718 1.309590869901996e-21)
(1.058491901688775 -0.01236316489529752 0)
(1.126419852464089 -0.00920689421227232 -5.13865525337903e-20)
(1.266628788139992 0.1229494151608726 -2.201325241823062e-19)
(1.088900488565323 -0.01085730420345706 -8.592054626650627e-20)
(1.071169061955633 0.02557681717746971 -1.066297394044398e-19)
(1.041114347252001 0.04679647578203242 7.463833262439789e-20)
(1.022463287786578 -0.003568029986554271 -3.475946432108077e-20)
(1.061176194012842 0.02371378011273153 5.687099682820518e-21)
(1.139419709361351 0.002961965482884199 1.040611512264271e-20)
(1.040059760565849 -0.01292964900778395 -4.712318295378101e-22)
(1.087528595056484 0.03477675836589299 0)
(1.028622137485008 0.01357689794467882 0)
(0.7892280778949954 -0.08073904897660095 -1.832951605488773e-19)
(1.030315192104193 -0.002031877949652959 -6.514724915367031e-20)
(1.13526409590971 0.001858047369846965 -1.264919344742864e-20)
(0.703507552917416 0.006546204372038704 7.123195212930424e-20)
(1.175861693659639 0.01864138007400033 -1.975173310995803e-19)
(1.133682576281164 -0.0002131895693744617 5.504451879785256e-21)
(1.129045612275643 -0.01009068220223425 3.358120918826141e-20)
(1.000934036769873 -0.002984519727127353 -6.648428676222155e-20)
(1.097819462652422 -0.05643473319902625 0)
(0.9893635125698761 0.00287586496446967 0)
(1.057894638019552 0.007022209310682121 0)
(1.006241741017886 0.1897142010378814 -2.352436245291672e-19)
(0.7793989430530149 0.0124378859290878 0)
(0.8570656853030638 0.1034355263436507 -8.182749808943403e-20)
(0.103001104454618 0.03097560874267806 -2.993055715509986e-19)
(1.172269238601565 -0.03253698066712132 -2.295189339006072e-20)
(0.6712372986432062 -0.007363516151091301 2.452566385526381e-20)
(1.162376917566678 -0.1036869037953448 6.974482750718574e-20)
(1.128569171409676 0.001349706426943429 -5.971884181412512e-21)
(1.153772176798671 -0.05076566143493183 2.230351303337742e-20)
(0.07270241599215838 -0.1939033125064286 0)
(0.2509232389304251 0.06169558788737369 0)
(1.258863941539868 0.1032325098621236 1.841154626044864e-19)
(1.021359380602 0.01987072608702225 0)
(0.737605560041961 -0.006280584779182308 0)
(1.074823785690197 -0.01149695561523858 2.735325939842346e-20)
(0.9750609026521051 0.002889052826408018 0)
(1.292849622078068 0.1173479364926665 -1.442342020619769e-19)
(1.057350497948835 0.01098453197440415 0)
(0.9924568029549035 -0.007619623938699669 0)
(1.065287796864108 0.008150689692439296 0)
(1.006261084449826 0.02091945817042649 2.21642970079266e-20)
(0.9284733698959796 0.005371649537434946 1.297422795848567e-20)
(1.175208812322218 -0.1991326744762137 0)
(1.005000386272158 -0.005215151570105163 8.031633293604672e-20)
(1.059227953650333 0.00620826088131322 0)
(0.7745457449855836 -0.003332617767621333 0)
(1.216966272479754 0.02548213598139373 1.613672494877637e-20)
(0.7050913934971943 0.001359712711367871 0)
(1.43146364801223 0.08390871201295504 -5.09793644357861e-20)
(0.9942302609282269 -0.00527671973541481 1.662464811957412e-20)
(1.27515696998539 -0.004561631623882822 -3.010337242367442e-19)
(1.059920509008042 0.008954122338410695 1.323951801633011e-19)
(1.000902464747358 -0.01354313496714322 0)
(1.210286883001256 -0.1497380418053807 2.051112882982809e-19)
(0.7331661658820881 0.01378613332672146 0)
(1.098112317792517 -0.004947065105290493 0)
(1.156351438953961 0.06494975707749169 1.882684988137501e-20)
(1.006268814696317 -0.006779815459567323 -3.047164738456876e-20)
(1.123083116511507 0.05028779820881097 -1.710201932311061e-19)
(0.1498324882584951 -0.09316083161102424 0)
(1.074016545830597 0.03807643973101528 0)
(0.6615898867143968 -0.002869392545350316 -5.001576246567345e-22)
(1.012074326869375 -0.01969318442744744 8.989493425373577e-20)
(1.06166567420852 0.0008439994545010859 0)
(1.084124935993421 -0.1411897630996029 3.791729443378647e-19)
(1.002552383946644 -0.006128968114798678 -3.298419259413936e-21)
(1.002709608048542 -0.003847555247816517 1.233762672436238e-21)
(1.094032629250686 -0.00917100481137329 0)
(1.020799240969149 0.02017600365974621 -6.669543688963416e-20)
(1.106765007799743 -0.00163780124083988 6.31313492499475e-22)
(1.074184313109879 -0.0106263722555356 6.625133977682108e-20)
(1.085619882841045 0.02219688603091774 0)
(1.324127079258767 0.1558893710060882 0)
(1.002095771589187 0.0005879502234704341 4.406322517022634e-20)
(1.320806555426947 -0.1343834151325463 1.606099044674008e-19)
(0.004887888500797237 -0.1417522565630902 -2.30741683351544e-19)
(1.071117871524741 -0.005401539382684392 0)
(1.111900563222116 -0.002974121559043206 1.178124640915034e-20)
(0.7268218459376609 0.01781710590042991 0)
(1.058106661878834 0.009053660727980251 0)
(0.8609652221211528 0.1614236529728404 4.601504368809533e-19)
(1.283746944518871 0.1191117485171757 1.853349979298618e-19)
(0.6541391418556487 -0.003110164051987311 -6.515396089560939e-20)
(1.040310880678005 0.003427734713327048 -2.699792967035156e-21)
(1.054898687165897 -0.0002091562250613144 6.447165534924363e-20)
(1.36044431459761 0.1167311946579262 6.54861863959744e-19)
(1.337885374927237 0.2523062830192622 0)
(1.057195314261931 0.01014391335975579 0)
(0.9970763896311142 -0.004326884470721669 1.371563892915371e-20)
(0.9939498651567619 -0.002884949550583305 1.561277677075538e-21)
(1.385873416545215 0.1994295739697121 4.334200334388332e-19)
(0.6818177989930782 0.0005658838401038509 9.955290277412362e-20)
(1.005724118973618 -0.002146923324061686 -6.016880135398899e-20)
(1.098069410961606 0.01315006436326524 2.557831818814107e-20)
(0.6694508240091296 0.004960638098276156 0)
(1.066082237155704 -0.01203310722364849 0)
(1.000983923414622 0.1289478954149169 -1.379324645870964e-19)
(1.084871964128084 0.005218063627821666 -2.575605359500212e-20)
(0.9818828360330704 5.806353607355895e-05 3.312499503240572e-20)
(0.9912115932555569 0.005988907705011084 0)
(0.6381344533094546 -0.00112789260628223 0)
(0.9767647453126497 -0.001296557890330256 0)
(0.6419745486565012 -0.001421097185908884 2.661514994146424e-21)
(1.086907808743315 -0.05636024038521902 1.218089258970928e-19)
(1.109062210170193 -0.005472106345375735 1.159037319345817e-21)
(0.9580441409381359 -0.0008667588165230083 3.88287650073918e-20)
(1.016989900550649 0.01064738478745876 1.720965365411823e-20)
(1.064506975258706 0.01011891871397874 -2.274869174797013e-21)
(0.6348191920269507 0.008857560599148958 -3.61823723534035e-20)
(1.004698905187285 0.01216656419787636 -6.10207728515481e-22)
(1.037539468350021 0.01025980487884737 5.183095446196295e-21)
(0.9862495095049972 -0.003325327311018769 0)
(0.6100331984626487 -0.0004422292869571087 0)
(1.069022920073174 0.02258122756421733 0)
(1.015780596212868 -0.0165915395490371 1.039624942587659e-20)
(1.022260388392951 -0.003648136644611214 0)
(0.9933265943123673 0.01418255456788377 -9.632167199942765e-21)
(1.010045064068001 0.005823275078361424 0)
(1.134209088339215 -9.352835748579802e-05 -1.251018308225631e-20)
(0.03037643759314167 -0.1391242239295576 -4.132419423528548e-20)
(1.034526124537788 -0.01694309136640942 -6.567073619142484e-22)
(1.044761291271199 0.008955762298441429 0)
(1.086693995697634 0.069388466736879 8.414152833734092e-20)
(0.968127671155392 -0.0008532726977501405 3.112809452292061e-20)
(1.020160823736001 0.01695030848826463 -2.23745031765641e-20)
(1.006980828339443 -0.001187131205689227 2.396382171302766e-20)
(1.039380200788327 -0.006831196186001512 0)
(0.6409700207317127 -0.004078791871336907 0)
(1.026019593013208 0.02448266772812769 -7.992496520439154e-20)
(1.08470410407898 0.003053744862643295 5.07829999593993e-20)
(1.011545678134341 0.006302758472202527 0)
(0.9815757605792939 -0.000566291757801302 -1.918294577606979e-21)
(0.8577459553255511 0.01327780102164046 -1.285555511506361e-20)
(1.01394603117108 0.002908207989042112 -9.596746953764609e-21)
(1.023824038580652 -0.0001512484167704176 1.82840289067841e-20)
(0.9801432627476733 -0.0008569483427562115 0)
(1.007930326856363 0.009672095123798704 3.208526652717793e-20)
(1.109334230966448 -0.003248966382998324 0)
(0.935061450070466 0.01062904736885597 -3.311738043269593e-20)
(0.9543500030716217 0.002495797444351298 0)
(0.9007212173844327 0.2025184486599456 4.964095500145322e-20)
(1.011231822626103 0.06761966057500567 0)
(0.9905619734694894 0.00444709894660544 -2.301569901498327e-20)
(1.055641367613515 -0.04878158877842396 -2.742001079397101e-20)
(0.9937343214638362 -0.0007185971927777123 3.277004840181005e-20)
(1.006903613003838 0.004242370997440114 0)
(0.9807069573260914 9.297278586260984e-05 -3.041389367858651e-20)
(1.178781768192677 0.09752917337353575 -3.34138624882808e-19)
(1.067758058073472 -0.263361073711842 0)
(0.9949091139931561 0.001008867340214687 -2.244299965324037e-20)
(0.9764916105739492 0.006340767641084098 4.743715700462713e-21)
(0.9581615798475449 -0.002660336683625953 1.047771311200645e-21)
(0.7460307435654853 -0.001082226822705117 0)
(1.115439634800231 -0.06894610793522041 0)
(1.005754433775436 -0.0009500909340005174 -2.206500398299753e-20)
(0.9046845955709742 0.002788316125221057 -1.092459580589282e-20)
(0.8412842807218315 0.002569324847391522 4.803184664640361e-21)
(1.010833636101961 -0.002175326937215079 0)
(0.9609264856150084 0.01082515472749014 1.558788210969458e-20)
(1.005726307379941 -0.0001893639233892444 -2.242583671792936e-20)
(1.026396830222863 2.740479151318814e-05 -2.478559045984565e-20)
(1.112776565547579 -0.005479966235548192 -4.895068566716211e-21)
(1.114675154386662 -0.005758966085218111 0)
(1.00935487031468 0.004838431505514982 0)
(1.024748528941882 -0.002666421988031754 0)
(0.9482275578583163 0.009886160055557284 -2.043103206936532e-20)
(1.017876017843075 0.01320853940070262 5.63789538758555e-20)
(1.086374073138742 0.001057520448528497 -2.350545142821517e-20)
(1.03738186909172 0.002180170748897684 0)
(1.108782428535493 -0.003573069354903544 1.818227860664539e-21)
(0.9949533646718766 0.0008500363371289704 -2.237656271325171e-20)
(0.9791960339076343 -0.0003342417366187514 0)
(1.010214867676139 0.002009262011874276 4.70223445915523e-20)
(1.361961997544803 -0.313629941465332 -1.118396198856454e-18)
(1.120621213324624 -0.0454454234606841 -1.112894110719262e-19)
(0.9751889974767251 0.01258881154253266 4.611136855745943e-20)
(0.7733137343850349 0.01703858740214352 -3.656753408821859e-20)
(1.222774600629615 0.04843269029132503 0)
(1.213796608710184 -0.1324935504850683 -1.483394987366436e-19)
(1.085864088033653 -0.002402667584813395 0)
(1.009233542797092 0.0006521716786232525 2.268696588603391e-20)
(-0.196178430330211 -0.08467818748586647 0)
(0.9939710454987957 -0.004676530061208692 0)
(1.012319346045224 -0.02303736541114455 3.853826958326244e-20)
(0.7062957285578159 -0.01941624615836842 0)
(1.096797164956172 -0.01499815211308051 2.373538844245555e-21)
(1.038781714191502 0.004847032833882273 1.424715800414177e-20)
(0.6331900554475821 0.004163157704914268 0)
(1.444958582326099 -0.1239750213471242 0)
(0.9859098969851641 0.002205068342826414 -1.068052972260975e-20)
(1.069608626937758 -0.01503412870124871 0)
(1.037928507902886 0.0005762540231357299 2.055019405330809e-20)
(1.086485867808647 -0.003724571055190406 0)
(1.011104878011361 -0.006452395436161316 -1.261721150532606e-21)
(1.006156556635019 0.003303187909430064 0)
(1.009589738023057 0.00103632170291006 -9.805025289976518e-22)
(1.003952953053161 -0.02007026650761885 0)
(1.035358308337719 -0.005814747800041813 1.847491816522951e-20)
(-0.2072029567926239 0.04903366124436632 2.819900043108999e-19)
(0.8135335566669968 0.03595476027187415 6.047307724033032e-20)
(1.00503201907324 0.002312978560223464 0)
(1.121429119334424 0.01508507461002637 -1.269635553507059e-20)
(1.10836164026246 0.006077488841454416 9.642022765725023e-21)
(1.053970397631846 -0.01284449054823684 -1.328958552699071e-19)
(0.9987721557410535 0.01040432597345359 -4.075239432542921e-22)
(1.085262922786695 -0.005601423688331398 0)
(1.188165704330331 0.04939746850686071 0)
(0.8350057250545462 -0.07381851924436279 4.609350364669309e-19)
(1.092329502923961 -0.009759514765652882 0)
(1.033420623614716 0.008032594085114775 -7.72431707619719e-21)
(1.042678669714177 0.005402782670859583 5.653907646840165e-21)
(1.051487139007981 -0.05867753575905696 -7.569682551331471e-21)
(1.139720159847459 -0.002565271904061809 1.725479147436944e-19)
(1.078080801289085 0.003178473413749534 0)
(0.9946510174230215 0.001951670854944854 0)
(0.9983174336169151 -0.02537442883726299 -2.403504007381918e-21)
(0.9912011439531613 0.003419359018210511 0)
(1.029641361708109 -0.03649570182466083 6.518589986236572e-20)
(1.292748515445913 -0.09922994620870468 0)
(1.042642998863415 -0.003591417391732071 -3.001978961713897e-21)
(0.9861838845978463 0.01682233616417103 -9.104257846957654e-20)
(1.034640483076449 0.0430890008170919 -2.321245060114946e-21)
(-0.0834346864868989 0.1970269967473282 -1.730364791458021e-19)
(-0.06733394249457604 -0.2803122906497447 -1.317271681055927e-19)
(0.8663976621158558 0.1113582758620611 0)
(0.2756616492572659 -0.01650298981910059 -2.906845228746632e-19)
(1.011082800582434 -0.01282998399075252 -9.794471864148916e-21)
(1.064009962971312 0.002683020210510052 -2.063720576814777e-20)
(0.9929234152122841 -0.02171941147429134 3.052068903945112e-20)
(1.027255167995676 -0.02830582532440978 2.653557961517228e-21)
(1.009199932909236 -0.03021824323082627 -6.714449856943848e-20)
(0.9887628188313605 0.004914707311799693 -3.495337383539172e-20)
(0.993910062672532 0.004670182723204796 0)
(1.024313613789304 -0.001994081717742586 -3.509933983668156e-21)
(1.929541876437528 -0.1562630332119899 1.064441167097097e-18)
(1.050946332299799 -0.0165886575962697 0)
(0.996789290129139 0.007445545551764461 1.482608373272196e-20)
(1.003441348351838 -0.0005164107417590288 4.004741697982017e-20)
(1.175498501717888 0.1544167631667668 0)
(1.008340273309989 -0.02271389302985601 1.379654084556264e-21)
(0.9536699480216161 0.002671565331302595 0)
(1.037849351555701 0.0417108071012416 0)
(1.294747009277504 0.1490783471846985 2.164238406213276e-19)
(1.076338261002991 -0.004232458545233964 2.327200587173102e-20)
(1.016360140156048 0.03159648102614118 4.485202796247681e-20)
(1.077174731637881 0.002024362373901886 -2.241318722826596e-20)
(1.059225480649659 -0.02369200478895831 -1.306326717975059e-21)
(-0.388882052692421 -0.03882195376013976 0)
(0.9990000643709338 0.01248220859472724 0)
(0.1269538982003639 0.05515620270596289 -9.356654508054224e-20)
(1.005523261596014 0.02108637896771996 -3.991028655341871e-20)
(1.005662737504966 -0.02097519900470717 0)
(1.00062253480471 0.0054073187748853 -4.899074350689865e-21)
(1.081896726560365 -0.04222433298845506 0)
(0.9946316758202758 -0.01925610680898619 -8.094605558462968e-21)
(1.096067731839679 -0.0465123566023372 0)
(1.441093363407522 0.1695559444395359 0)
(1.054592923464865 -0.01174435753454862 0)
(0.9919320385570137 -0.02419541503638323 -4.104071612459505e-20)
(0.9855440700935615 -0.01927341283906353 -3.106857756219199e-21)
(1.018869053334264 -0.0211444627516999 -2.145618985202358e-20)
(0.9968853370059565 0.01718387730724799 -5.386408098766538e-20)
(0.9958441983339673 0.009309958207260733 -1.444906251730295e-20)
(0.9951884771097331 -0.02675172577066125 0)
(1.001601644209895 0.02491208642818378 1.87740527029463e-20)
(1.037216770082947 -0.02242490486539905 0)
(1.110541836647013 -0.03652556934322235 2.516524558262254e-19)
(0.9951356332016655 0.01674853504342649 4.463463176308098e-20)
(0.6150624705073033 -0.008689636414752259 0)
(1.156886290172796 0.1528593942069052 2.313074750720053e-22)
(0.8225557959024693 -0.08476041476910696 0)
(1.139111772893593 0.07251535860036727 -2.805567518797264e-19)
(1.313304698911011 -0.3878648340949709 1.273325193750042e-19)
(1.073754879568614 0.06696951259174772 -1.28815025543596e-20)
(1.011191624306478 -0.02959429571563551 0)
(0.9547920261840432 -0.2139458353791435 0)
(0.5464867299837045 0.1739901137690797 0)
(1.013640272593895 0.01404824314775189 1.006745949591418e-21)
(0.7145439936274283 -0.01088824170223461 0)
(0.9982706865668648 0.01655966957121114 3.436239222945528e-20)
(1.024422099544352 0.0001989090755374671 -2.655665677758198e-20)
(1.079097744484344 -0.008003174456780787 2.635559802936571e-21)
(1.051790228287793 -0.01906539316842328 2.600959067128735e-20)
(1.043003204404389 0.01111217263365741 0)
(1.053462945445729 0.02323652880625956 -9.213433651056339e-21)
(1.051436878852876 0.03566450094847724 -1.763418322299422e-20)
(0.9836655373072049 -0.02187458275213983 0)
(0.624886876389066 0.005128360410173522 9.175301515246265e-20)
(0.8941701756372872 -0.005943173943675542 -8.850615733376804e-20)
(0.9093527918509415 0.005234646508931358 1.448304992403132e-20)
(0.6296460958403467 -0.006424608037589537 1.411469070465975e-20)
(0.9801870051001634 -0.0004787835551512875 2.510899433576702e-20)
(1.004413594021745 -0.01760376832264896 -3.280802376182689e-20)
(0.9751815075877287 -0.01870777083377535 -2.805195698076918e-20)
(1.085621731877634 0.001501643541467272 0)
(1.018735440136779 0.005146632735561464 1.076322635008291e-20)
(1.133194876591533 0.04807589735407478 1.352512899127313e-19)
(1.032596923128548 0.04301947595144477 0)
(1.022373150408316 0.002634641487278622 0)
(1.580377923204704 -0.1678742038360344 4.350753136647658e-19)
(1.047407911066036 -0.02968388705490325 0)
(1.022549397150312 0.009620020524609939 -3.567394118805465e-20)
(1.085012018698317 0.0004937135968679859 0)
(0.4917672112097853 -0.001475460069471213 0)
(-0.02829900670794078 0.001273998112630307 0)
(0.9905942759783668 -0.02339634391834742 1.253384060955569e-20)
(1.29953535085544 -0.0966799094035137 3.656726406480855e-19)
(1.031442955768249 0.03845065111822367 0)
(1.022648934544545 0.003497899992957097 -2.178890899061964e-20)
(0.930784570024179 -0.1640778333957882 -5.412246337639192e-21)
(1.254618290259238 0.07279170975349487 0)
(0.5989990500579151 0.732101180024845 0)
(1.304826911567244 0.1414385515418111 1.042104964016107e-19)
(1.672993984323615 -0.02651533092757059 0)
(1.070677475644592 0.1330462795194438 0)
(0.7322004128701634 0.003068879456669015 3.636240187903758e-21)
(1.047794655674561 0.04902914268579722 0)
(0.73062821296645 0.1050455232250138 1.346625387705508e-19)
(0.9968271659569007 -0.01624480220973821 3.586894372987216e-19)
(1.037173744697997 -0.03818748377429913 2.650713370265935e-20)
(-0.3698255809006717 -0.05403860894589877 0)
(1.071879122039071 -0.01611672783286243 0)
(1.089120382204419 -0.01591273777927764 0)
(0.6472808358621434 -0.5008227273072785 -2.506603214436901e-19)
(0.9913539868186826 0.0001411998863569122 0)
(1.091949279427654 -0.02221142558089364 6.881777353231102e-22)
(1.189139406396084 0.1207748677732711 -2.052016357328257e-19)
(1.097626140209757 -0.0392882738835218 0)
(1.005278687288939 -0.02073387720240518 0)
(0.7917118626320947 -0.1975583723618831 -1.710077618158074e-19)
(0.8951292458175762 -0.1442242743443124 1.468884196922801e-19)
(1.03297313178559 0.01088517734713127 -2.051692448581703e-20)
(1.023134510490314 -0.009210588303451388 -4.254942444581972e-20)
(0.8680588319667409 -0.002288679261270995 -1.294281969989078e-22)
(1.50214436011075 -0.1944454887407406 0)
(1.304848078033114 0.1095374680150057 3.060260242090469e-20)
(1.241868522349563 -0.0796314585853229 -3.179519237872201e-21)
(1.095894539684908 -0.01882910355993947 -3.999365659001017e-20)
(1.040719601757876 -0.01874618319521361 3.056404561763559e-20)
(1.092801769428116 -0.03917688785129132 9.584099583407045e-20)
(1.032678166098985 0.0201763260441274 0)
(1.050652787333856 -0.03240084974116952 0)
(1.11586014922818 -0.009035430581139939 0)
(1.099181604858932 -0.03246404278780404 0)
(0.9981602842614659 0.01070115991660924 0)
(1.154569152630792 0.07729040532507074 9.332274073802134e-20)
(1.344806544880055 -0.1606491528028299 0)
(1.042773006033487 -0.02501013663481767 -2.452418330327126e-22)
(1.050519751646247 0.05529559364294827 0)
(1.009968672443479 0.01420913816836842 -3.799781966500056e-20)
(1.033483269701335 -0.008004294247086428 9.388115635442027e-21)
(1.088992191584818 0.01333044754870235 -3.158968864087028e-20)
(1.084130440828507 -0.02936338143863461 0)
(1.075047347798828 -0.004171672268506536 0)
(1.100337274754246 0.09244251164727826 -1.396816286838576e-18)
(0.9348712061295954 -0.1481364477166396 -7.114432677655273e-20)
(1.180611761994441 0.111595329916556 1.130386451212663e-19)
(-0.4531958132514829 -0.02557953418082542 -2.928282502377363e-19)
(1.018946297497182 0.02973686197441086 -8.540142952386288e-20)
(1.007318595212267 -0.004043262020359356 0)
(-0.2502827448184555 0.007809783105468803 3.577753111075142e-19)
(-0.0402772074780544 0.3355031615525186 7.792197926960181e-21)
(0.9952126060173265 -0.006322546964769502 8.866614000632228e-20)
(0.1841086263235384 -0.04308946750824904 1.311138216793789e-19)
(1.093032075572971 0.09164773211303415 1.465066083024014e-20)
(0.09331345021908798 -0.1072086770327894 -5.355030893894567e-20)
(1.108115637261385 0.003154958730727157 0)
(1.093176179193803 0.2492627910881342 0)
(1.021256583465012 0.021871974923949 -1.672611785220731e-20)
(1.065131313966394 0.06046623838093229 0)
(1.024062280809434 0.02498385866512338 -8.543531315518576e-21)
(1.260200447519908 -0.5475979674431987 7.976829856972821e-19)
(-0.08759056274894468 -0.2282490100499185 2.076890412949838e-19)
(1.297697896316476 0.1104713504049488 -6.099638128686234e-19)
(1.124781414285597 0.0008154264513530132 0)
(1.132994459901307 0.1067544646889369 0)
(0.5198374652801258 0.07652579392461116 2.417462378093029e-19)
(1.022947214331692 -0.02073131984092463 9.611659121358725e-20)
(1.005502415905895 -0.02327187335423283 0)
(1.213206085512679 0.271386135897191 -9.849668253808478e-20)
(1.250852528152137 0.1264886896695555 -1.491947887157338e-19)
(1.026479471722961 0.002775556143677271 1.596227267559919e-20)
(1.295283994751189 -0.08503955220221707 -4.943949771371492e-19)
(0.3104852311753791 -0.02399557701450962 2.878681230714715e-19)
(0.835946773290674 -0.1508681040245468 6.932067302900549e-19)
(1.052895795902671 0.06993551851907251 1.095271335512021e-19)
(1.039886184791841 -0.002344234824162138 1.280241490209674e-21)