/*--------------------------------*- C++ -*----------------------------------*\
| =========                 |                                                 |
| \\      /  F ield         | OpenFOAM: The Open Source CFD Toolbox           |
|  \\    /   O peration     | Version:  2412                                  |
|   \\  /    A nd           | Website:  www.openfoam.com                      |
|    \\/     M anipulation  |                                                 |
\*---------------------------------------------------------------------------*/
FoamFile
{
    version     2.0;
    format      ascii;
    arch        "LSB;label=32;scalar=64";
    class       volScalarField;
    location    "29";
    object      p;
}
// * * * * * * * * * * * * * * * * * * * * * * * * * * * * * * * * * * * * * //

dimensions      [0 2 -2 0 0 0 0];

internalField   nonuniform List<scalar> 
808
(
0.128355
0.0184328
-0.000715253
0.128383
-0.180552
0.0209685
0.0113517
0.028187
-0.0882125
-0.00803865
0.0271231
-0.101835
0.0244703
0.0151224
-0.339941
0.0237938
-0.362245
0.023512
0.0144386
0.0156363
0.00621935
0.379108
0.0657506
0.0101561
0.456339
-0.178254
-0.0317784
0.00701546
0.0216513
0.0152511
0.0180172
0.0274326
0.0220122
0.0140739
-0.0631088
0.636711
0.01476
0.0197751
0.0254675
0.0173585
-0.0354383
-0.0350072
0.0324707
0.0226443
-0.170031
0.0824865
0.0208652
0.0370825
0.0182188
-0.124854
0.0133728
0.0308675
0.0399452
0.010027
-0.101723
0.0148876
0.00764635
0.0255616
-0.00139477
0.0105115
-0.276213
0.0271557
0.0298798
-0.146593
0.0227752
0.0425581
-0.202038
0.0212274
0.0146401
-0.230178
0.0255494
-0.25823
0.0269302
0.021913
0.209071
0.00770487
-0.0047806
-0.0884125
0.0108358
0.308497
-0.127198
0.0187072
0.0350666
0.288433
0.0100429
-0.0248199
-0.299882
-0.123326
0.0336025
-0.222827
0.0485739
-0.0749108
0.251449
0.153002
0.0361624
-0.186099
0.018228
-0.115998
-0.0834076
-0.169174
0.0146345
0.00525322
0.0472407
-0.0206076
-0.0971324
0.0530029
-0.18861
0.0262191
0.0141108
0.0563249
-0.0766059
0.330263
0.0212938
0.0515712
0.0211998
0.461135
0.0183392
-0.213199
0.0175597
0.0652553
-0.212289
0.0341072
0.018326
0.0671719
0.1062
-0.0663059
0.120744
0.050917
0.0467436
0.0627854
-0.19533
0.024268
-0.0357059
0.117759
0.0224286
0.0140741
0.0261092
0.00600475
0.0245548
0.0149486
-0.322646
0.0582983
-0.00836937
0.0229719
-0.0448677
0.0947152
0.105766
0.167913
0.0220258
0.0343212
0.0206587
0.341326
0.0368923
0.538695
-0.299171
-0.115379
0.0178518
-0.215985
0.0118784
-0.133298
-0.256744
-0.313243
-0.215131
0.024281
0.0567489
0.0184384
0.0278373
-0.21612
0.0201202
0.0247266
0.0470722
0.153366
0.0821483
0.146396
0.0175465
0.0806562
0.0652469
-0.115031
0.0271632
-0.283208
0.0258421
-0.1621
0.0222756
0.277961
-0.355923
0.111801
0.0187906
-0.129051
0.0235505
-0.0803305
-0.304517
-0.0586908
0.018319
0.0949371
0.0223052
-0.317129
0.017115
0.0316766
0.00736304
0.0730379
0.0751409
0.0275929
0.0229666
-0.256862
0.378371
-0.300078
-0.258445
0.0124199
0.0021314
0.0217224
0.00526451
-0.33101
-0.192576
0.016787
-0.0127614
0.0230976
-0.262977
-0.0535872
0.00202626
0.0413083
0.00697178
-0.104273
0.0291038
0.0296905
0.00450223
0.0241185
0.119862
-0.211629
0.080862
0.0188693
0.111835
0.022899
0.0261046
0.0150453
-0.105614
0.00917558
0.0117891
0.000870837
-0.00560509
0.014049
-0.00331326
-0.0047931
0.00854527
0.0078415
-0.00255486
0.00770096
-0.0106149
-0.00531329
0.0130184
0.0612264
-0.259367
0.002539
0.00515136
-0.121053
0.013045
0.0118564
0.0306107
0.00215584
0.0260024
0.12035
0.0849951
0.00397575
0.0103005
0.0645287
0.0158652
0.0203315
0.0436794
0.0601424
0.0415603
-0.011883
0.00889437
-0.328968
0.272765
0.00573787
0.000861148
0.0204578
0.00499451
0.0126344
-0.17031
0.297933
0.0393177
-0.00925897
0.0314498
0.0951663
-0.0904569
0.0216586
0.0252854
0.0795604
0.0264396
0.0205793
0.0275134
0.026537
0.0374607
0.0303256
0.0432865
0.0262719
-0.0244817
0.0510026
0.076107
0.0530299
0.0311488
0.0281114
0.0325255
0.009711
-0.432925
-0.106193
-0.029246
0.00728868
-0.135464
-0.307097
0.0491176
0.0269535
-0.261948
0.140444
0.171031
0.0193665
0.0189421
0.0642998
0.00470993
-0.171061
0.0325747
0.00506417
0.0242725
-0.00367946
0.00454594
0.0308806
0.0495917
0.00643088
0.0234279
-0.27198
-0.0934759
0.0234094
-0.0145504
0.0499251
0.0100582
0.228606
0.0220404
-0.125646
0.557883
0.0130317
0.0050735
0.0273582
-0.028415
-0.061269
0.0583685
0.0310677
0.00957394
0.0449633
-0.0403927
-0.27897
0.0597595
0.0998497
-0.0608999
-0.275254
-0.257412
-0.222004
-0.253639
0.0324411
0.03014
0.0222671
0.00920163
-0.0180193
0.0103492
0.0382623
0.00821717
-0.428194
0.0169344
0.0455953
0.014316
-0.26388
-0.0250378
0.00933977
0.123678
-0.261043
0.0191197
-0.0454319
0.0345171
-0.0577517
-0.265232
0.0333774
-0.328135
0.0151089
-0.0285624
0.0135702
0.0128445
0.0194016
0.0229712
-0.273694
0.0103669
0.0162994
0.0222801
0.00581587
-0.000749442
0.0379571
0.00367426
-0.00221541
0.0103337
0.0568311
0.0173577
0.0167504
-0.223724
-0.102248
0.0519298
0.03107
-0.129281
-0.00967322
0.441731
-0.244364
-0.00325844
-0.204591
0.0231358
0.0389994
0.024879
-0.010322
0.00600869
-0.0155021
-0.0567191
0.00745591
-0.00251858
-0.00610006
-0.0104466
-0.0105332
0.0188801
0.128244
0.00819882
0.0145348
0.014452
0.00918443
-0.0766388
0.024619
-0.311578
0.0383419
0.0643076
-0.0128768
-0.219128
-0.262833
-0.00387171
-0.0452461
-0.0735799
0.0308862
-0.104918
-0.175351
0.211465
-0.249876
-0.380518
-0.29134
-0.124278
-0.110765
-0.217626
0.362224
-0.00670731
-0.270258
0.0119423
-0.00820092
0.596958
0.0133476
0.0318575
0.0346968
0.039393
-0.00458083
-0.296895
-0.323446
0.0702772
0.0753568
0.0656853
-0.207067
-0.230755
-0.259775
0.0147225
0.000620388
0.0879271
-0.00986605
0.00259085
0.0742141
0.0609955
0.032384
-0.150764
-0.320621
0.0105064
-0.106428
0.0264427
0.00155548
0.0902211
-0.0573645
-0.016602
-0.389051
0.466003
-0.199125
-0.271003
-0.0289998
-0.0280977
-0.285125
-0.282919
0.133286
-0.268359
-0.222239
0.874711
0.015224
-0.290164
0.0103665
-0.158025
-0.00820562
-0.382962
-0.310373
-0.236631
0.0135605
-0.24258
-0.292529
-0.0154823
-0.0211401
0.0910142
-0.23488
0.0243523
-0.424306
-0.342248
-0.403355
-0.268778
-0.0507269
0.0114213
0.101258
0.141829
-0.0436666
-0.262082
0.321886
0.0889793
0.0246191
-0.364699
-0.421371
-0.257327
0.00889221
-0.281794
0.117589
0.00954374
0.0109713
-0.203092
-0.172312
0.0121954
-0.257079
-0.327662
0.00916088
-0.00190447
-0.114609
-0.0109013
0.029154
-0.310861
-0.264597
-0.0717491
0.093028
0.0319746
-0.264566
-0.310996
-0.177183
-0.316618
0.0304193
0.0946208
0.0127287
-0.189558
-0.316612
0.095213
0.0364759
-0.235102
0.0244853
0.0317227
-0.349261
0.0150531
-0.202425
0.0260435
-0.377181
-0.0299136
-0.00127856
-0.382001
-0.473749
0.005185
-0.398553
-0.38511
0.0211804
-0.0902513
-0.29273
0.00587831
-0.257295
0.0338697
0.0702885
0.0793601
-0.343188
0.102357
-0.0343282
-0.470523
-0.0100251
-0.285565
0.0224383
-0.249649
-0.527728
0.123272
0.267143
0.453112
0.00388272
0.00494739
-0.000712993
-0.273414
0.651194
0.0181955
-0.239749
0.0361041
-0.0166699
0.101033
0.483886
-0.38642
-0.0387075
-0.04276
0.0363585
0.0163792
-0.470102
-0.267074
-0.265212
-0.350915
-0.216815
0.00609785
-0.292364
0.0831683
-0.286576
-0.330698
0.5021
0.585639
-0.362461
0.144417
-0.288026
-0.0114867
-0.180396
0.395503
-0.125262
-0.259808
-0.112878
-0.526889
-0.0305534
-0.210878
-0.0327525
-0.328211
-0.300366
0.000917446
0.00588771
-0.259151
0.477339
0.678769
-0.236746
-0.320389
-0.259347
-0.0555069
-0.320825
-0.302042
-0.208959
-0.257435
0.75088
-0.355237
0.765445
-0.342879
0.349361
-0.243861
-0.00125771
0.169425
-0.518115
0.263137
-0.304838
-0.328531
-0.35561
0.875432
-0.28007
0.229146
0.172545
0.663778
0.143748
-0.402414
-0.316249
-0.151314
0.0120628
0.073768
0.552076
0.0182174
-0.0298692
-0.303323
0.103158
-0.0802643
-0.240689
0.0205064
-0.409733
-0.104417
-0.173546
-0.299532
0.00404077
0.120814
-0.000738011
0.0703582
0.129952
-0.349634
-0.374745
-0.0630342
0.00390081
-0.482901
-0.530414
0.164198
0.189925
0.103217
0.666419
-0.0392759
-0.307041
-0.399183
-0.315123
-0.021515
0.0731823
0.766569
-0.468366
0.405351
-0.00799515
-0.444861
0.149924
-0.0906432
0.410337
-0.173147
0.0131258
-0.271043
-0.0318482
0.231095
0.830904
0.351376
0.760408
-0.261302
-0.318252
-0.347227
0.158345
0.267901
0.0587015
0.376964
0.177659
0.508927
0.26999
-0.0609106
-0.139731
0.0540191
-0.358684
0.892083
0.426447
0.644289
0.520691
-0.282392
-0.254057
-0.296624
-0.263682
0.0450147
-0.341185
0.140205
0.597221
-0.261634
0.0224864
-0.260017
0.184151
-0.341309
-0.384381
-0.133009
-0.309306
-0.342365
-0.285596
-0.278013
-0.0941254
-0.346632
-0.0855265
-0.232299
0.141837
0.680158
-0.236596
-0.253383
0.828166
-0.254231
0.313342
-0.248844
0.422464
0.106575
-0.221132
-0.414121
0.436348
-0.22078
-0.33649
0.220233
-0.290299
-0.0188426
-0.313224
-0.132964
0.0222948
0.589433
0.791484
-0.310044
0.247535
-0.302924
0.829512
-0.006877
-0.328582
-0.0230915
0.780286
0.206006
-0.336125
-0.300562
0.477347
-0.224964
0.0284218
0.343686
0.254126
0.315824
-0.26725
-0.361883
0.699229
)
;

boundaryField
{
    FrontBack
    {
        type            empty;
    }
    Top
    {
        type            zeroGradient;
    }
    In
    {
        type            zeroGradient;
    }
    Bottom
    {
        type            zeroGradient;
    }
    Out
    {
        type            fixedValue;
        value           uniform 0;
    }
    circle
    {
        type            zeroGradient;
    }
}


// ************************************************************************* //
