/*--------------------------------*- C++ -*----------------------------------*\
| =========                 |                                                 |
| \\      /  F ield         | OpenFOAM: The Open Source CFD Toolbox           |
|  \\    /   O peration     | Version:  2412                                  |
|   \\  /    A nd           | Website:  www.openfoam.com                      |
|    \\/     M anipulation  |                                                 |
\*---------------------------------------------------------------------------*/
FoamFile
{
    version     2.0;
    format      ascii;
    arch        "LSB;label=32;scalar=64";
    class       surfaceScalarField;
    location    "29";
    object      phi;
}
// * * * * * * * * * * * * * * * * * * * * * * * * * * * * * * * * * * * * * //

dimensions      [0 3 -1 0 0 0 0];

oriented        oriented;

internalField   nonuniform List<scalar> 
1171
(
-0.945682
0.945682
0.780576
-1.08656
0.305986
-0.344725
-0.779252
1.12398
0.054318
-0.0639562
-0.274403
0.338359
-0.780576
0.083454
0.697122
0.93237
-0.199666
-0.732704
0.842302
-1.0357
0.193396
-0.354191
-0.0342622
0.388453
0.00202745
0.6016
-0.603627
-0.5282
0.997289
-0.469088
-0.418147
1.01105
-0.168744
0.279348
0.0820331
-0.361381
0.998924
0.0121227
0.325608
-0.0462605
1.03026
-0.0313344
0.684608
-1.02933
-0.791076
0.61579
0.175286
0.366085
-0.894285
0.562304
-0.91632
0.354017
-1.07982
0.669402
0.410421
-0.642513
0.64454
0.0362228
-0.256341
0.220118
0.0134304
-0.636886
0.623455
0.466375
-0.500637
-0.846132
0.895608
-0.0494763
1.00843
0.0218245
0.925377
-1.07977
0.154393
1.0437
-0.035269
-0.700392
-0.0906847
1.24964
-0.859305
-0.390339
0.197571
-0.0681779
-0.416055
0.484233
-0.274371
0.181815
0.0925555
-0.602591
-0.48397
0.976351
-0.0509742
-0.0151449
0.866129
-0.850984
0.506367
0.743277
0.533422
0.0272699
0.439105
-0.786251
-0.106651
0.892902
0.601382
0.23314
-0.834522
0.00348157
0.627324
-0.630805
-0.508837
-0.570986
-0.391773
-0.687997
0.0288557
0.242634
-0.27149
-0.94447
-0.032592
0.977062
0.372635
0.0158179
0.868376
0.0639934
-0.604725
-0.0377876
0.0394132
-0.825665
0.179966
0.91373
-1.0937
-0.406858
0.0231203
0.383738
-0.714532
-0.229938
-0.735641
0.915607
0.606913
0.390376
-0.576357
0.998372
-0.823023
-0.175349
0.0526336
-0.160532
0.107899
-0.457263
-0.0433745
-0.328263
0.935175
-0.019705
0.440644
-0.420939
-0.496496
1.09788
0.711199
-0.81785
0.383171
-0.0740072
-0.309164
0.763799
-0.763799
-0.965584
0.038908
-0.313311
-0.695227
0.680082
-0.0314256
-0.141486
0.172911
0.887345
-0.0212162
1.0504
-0.817258
0.221584
-0.317463
0.0958789
1.00253
-0.134158
-0.680329
-0.0514428
0.731772
0.150448
-0.233889
0.083441
0.812479
-1.01215
-0.446012
0.3122
0.133811
0.658908
-0.645477
0.884134
-0.399939
-0.484195
0.492361
-0.694708
0.0376745
0.657033
0.168013
0.673687
0.0430724
-0.716759
0.132775
-0.0938668
-0.516403
0.109545
0.0367277
-0.907172
0.870445
-0.554853
-0.76309
0.0626981
0.498156
-0.0590512
0.273924
-0.832387
0.558464
0.424388
0.575612
0.598294
-0.558881
-0.363466
-0.0319673
0.395434
0.541106
0.222693
-0.666446
0.669928
0.082101
0.895933
0.00506935
-0.685399
-0.76676
0.803488
0.622244
0.121933
0.351304
-0.473238
-0.156262
0.512941
0.114383
0.754057
-0.727514
-0.0265437
0.655981
0.342391
-0.428407
0.720077
-0.598144
0.409789
0.152515
-0.0585519
-0.623519
-0.192112
0.815631
-0.117046
-0.646753
-0.612831
0.365182
0.247649
0.662274
-0.657205
0.306933
1.03729
0.0131054
-0.76676
-0.0468373
0.0994709
0.711199
0.786371
-0.786371
0.844474
-0.831273
-0.0132016
-0.454902
0.87929
-0.194046
-0.322357
0.762553
-0.667992
-0.0945619
-0.850767
0.227248
0.106043
-0.710768
0.81785
-0.974112
-0.16871
0.158282
0.0104277
0.115901
-0.990467
0.874566
0.545804
-0.0123816
-0.29057
0.596549
-0.305979
-0.654744
0.770645
-0.160749
0.774372
-0.733746
-0.0406262
1.16132
-0.630394
-0.530926
0.727819
-0.0696081
-0.0201009
0.0210145
-0.00091362
-0.800877
-0.874969
0.0957172
-0.695227
0.576376
-0.553255
-0.0308802
0.687935
-0.657055
0.779962
0.16572
0.492084
0.507916
-0.047554
-0.630111
0.677665
0.717549
0.0365083
-0.727819
0.803488
0.178569
-0.43491
-0.0143351
-0.00759384
0.0219289
0.676968
-0.441074
-0.235894
0.697122
-0.00734995
-0.100597
0.554334
0.122634
-0.0068943
0.0022166
0.0046777
0.00181077
-0.0219117
0.124698
-0.198706
-0.94712
0.0468255
-0.143632
-0.0440117
0.126078
0.769615
0.743224
-0.167613
0.360252
-0.391133
-0.162917
0.3845
0.641639
0.0554828
0.22869
-1.05996
-0.974112
0.313584
0.680082
-0.158236
0.0167506
-0.816441
0.978602
-0.162161
0.486489
-0.102751
0.800837
0.305292
0.287586
0.0380222
-0.680738
0.680738
0.224659
0.668243
-0.00796077
0.448604
0.476273
0.0292402
-0.0435753
0.555072
-0.00926805
-0.654744
0.572187
0.190366
0.0168466
0.00416792
-0.641639
0.161131
0.817471
0.014736
-0.721324
0.706588
0.758955
-0.823108
0.0641527
-0.779962
-0.0332868
0.0452012
-0.0119144
0.0836796
-0.126898
-0.107903
0.234801
-0.00725594
0.000361633
0.758854
-0.744118
0.889792
0.234184
-0.469626
-0.500512
0.970138
-0.000942841
0.000942841
0.126315
0.380546
0.726596
-1.10714
-0.195887
-0.561165
0.757052
-0.0182495
0.191161
0.386205
-0.235757
1.10334
-0.722799
0.773014
0.937297
-0.210701
0.192159
0.770645
0.601901
0.258186
0.637422
-0.646753
0.319262
-0.0130837
-0.0208726
0.0339563
0.831954
0.0702324
-0.902186
-0.570566
0.535297
0.545098
-0.570566
-0.601901
0.535297
-0.00753827
1.04524
-0.155443
-0.541106
0.461253
0.079853
0.504621
0.667295
-1.17192
0.450478
0.652866
0.696241
0.466705
-1.16295
0.344059
0.593238
0.461253
-0.521415
-0.555198
-0.6813
-0.410602
-0.0458115
-0.00312847
0.00312847
0.606122
0.591599
-1.0022
0.733294
-0.38199
-1.04143
0.411037
-0.685601
0.455664
0.0232817
-0.946064
0.922783
0.452654
0.00609824
0.825856
-1.20527
-0.969057
0.0423022
0.926755
0.358499
-0.083513
-0.274986
0.771816
-0.82279
1.07377
-0.986419
-0.0873553
-0.0526016
-0.674912
-0.110007
0.809172
-0.699164
-1.00007
0.947468
-0.515779
0.644121
-0.128342
-0.897252
0.22015
0.677102
0.00345085
-0.0043937
0.426439
0.131493
-1.02762
0.896125
-0.746346
0.698792
0.996985
0.136972
-1.13396
0.0279274
0.0115339
0.3839
-0.358114
0.0406512
0.94807
-0.924789
-0.663068
-0.85924
0.184328
-0.11717
-1.03202
0.0456009
0.556405
-0.196153
0.155298
0.2032
-0.491816
0.711966
0.484195
-0.939966
-0.863097
0.182138
-0.0767707
0.600456
-0.523685
-0.109237
-0.739838
0.579503
0.179452
-0.10864
0.934495
0.98977
1.00579
-0.960193
0.0454567
-0.0454567
-0.0911434
-0.337575
0.254062
0.338838
-0.0252535
0.280236
0.825259
-0.00521934
-0.00203659
0.658321
0.341679
0.797376
-0.602591
-0.761775
-0.453453
-0.485821
0.485821
-0.205854
-0.107457
0.687219
-0.980088
0.29287
-0.488592
-0.558303
0.358887
-1.04688
-0.998955
0.9116
-0.538269
0.722598
0.68977
0.180843
-0.870613
-0.581795
-0.167615
0.834185
-0.66657
0.173696
-0.00683
0.00370844
0.00312156
-0.0517771
-0.285798
1.04611
0.713125
-0.407366
-0.305759
0.438139
0.740812
-0.516153
0.0099186
-0.284289
0.170295
0.745016
-0.915311
-0.357113
-0.0764189
0.135302
-0.983061
0.0808748
-0.799245
0.0446336
0.772906
-0.817539
-0.872945
0.0737003
0.694085
-0.770504
0.236029
-0.362927
-0.429464
-0.152331
0.370453
0.747709
-0.0276314
0.0052424
-0.0052424
-0.000911862
0.00990058
-0.0229843
-0.0172107
0.0119914
-0.625617
0.326181
0.797572
-0.836899
0.0393273
-0.724219
0.768853
0.764757
-0.0706726
-0.72375
-0.149195
-1.16989
0.0205183
0.0249384
-0.455322
-0.833757
-0.862898
0.472558
-0.197237
0.187346
0.00989099
-0.518455
0.0631326
0.506848
0.712639
-0.0352712
-0.00874055
1.13539
0.498419
0.225882
-0.724302
-0.445751
-0.072704
-0.00891419
0.00208419
0.697145
-0.889258
0.006521
-0.006521
-0.715078
0.705109
0.00996824
-0.290452
-0.0910815
-0.706159
0.0683025
0.609362
-0.0515363
-0.873774
-0.0581958
0.111791
-0.0535947
0.815485
-0.776158
0.34321
0.265835
-0.609045
-0.136612
-0.716058
-0.101481
-0.216658
0.0101067
0.470314
-0.513689
0.184148
0.725378
-0.909526
0.492361
-0.108233
-0.0890037
0.166952
-0.156845
0.598136
-0.0940663
-0.50407
-0.282431
0.302695
-0.0202636
0.606675
0.126619
0.0486992
-0.309189
0.16678
0.142409
-0.145015
0.0981773
-0.24734
-0.021937
0.105372
-0.0834348
0.853889
-0.33149
0.0410376
0.553855
0.242054
-0.649419
0.409857
-0.409857
-0.199682
-0.390767
-0.211061
-0.390767
-0.661399
-0.849595
0.181603
-0.0774279
0.72906
0.0448804
0.160712
0.586997
0.108608
0.116548
0.0101791
-0.126727
0.0343626
0.76336
-1.04233
0.541817
0.0104054
0.0740952
-0.0845006
-0.737243
-0.175513
-0.585966
0.811849
-0.544433
0.0458886
-0.202734
-0.334417
-0.0818423
0.0818423
0.0418506
0.00335058
0.137066
0.285523
-0.767387
0.18142
-0.0104672
0.470848
0.529152
0.747492
0.0297239
0.00460847
-0.0343324
-0.292881
-0.580893
-0.549226
0.111643
-0.11692
0.0052771
-0.114676
-0.416424
-0.0232724
0.632635
-0.577324
-0.159918
-0.114644
0.0460868
0.116467
-0.328
-0.195675
-0.179494
-0.0192114
-0.486625
0.432219
0.0544057
-0.0787997
0.293374
-0.86436
-0.541474
0.666997
-0.851456
0.714844
0.460138
-0.0328381
0.0600817
-0.0272436
-0.00730496
-0.635506
-0.000626683
0.636133
-0.894242
0.637092
-0.728236
-0.130729
0.00709921
-0.00709921
-0.299271
0.435938
-0.0520386
0.0187731
0.0109508
0.594613
0.565325
-0.591869
0.0111793
0.00725645
-0.00201405
0.00362794
-0.00362794
-0.517745
0.644364
0.0129397
-0.0129397
-0.776851
-0.00883379
0.0122846
-0.534301
0.715722
0.608713
-0.598745
0.0681772
-0.0681772
-0.0183265
-0.0252488
0.0116664
-1.02628
0.495353
-0.507854
-0.00439369
0.596657
0.0135843
-0.610241
-0.704689
0.127365
-0.318551
-0.0137733
0.332324
-0.0226392
-0.0126319
-0.604514
-0.0309921
0.0249384
0.00577907
0.000741923
-0.00309713
0.00309713
-0.395585
0.312151
-0.453863
0.134738
0.662638
-0.137305
-0.00153396
0.00153396
0.508523
-0.124799
0.00804206
0.0178391
-0.000765758
0.540588
-0.665387
-0.659692
0.70073
-0.0719153
0.322751
0.771205
-0.000911862
-0.100383
0.104551
-0.641471
0.556423
-0.319904
-0.108032
-0.0250111
-0.0254613
-0.0126022
0.467004
-0.0870107
-0.417059
0.693628
-0.00049947
0.00743658
-0.00743658
-0.160271
-0.110063
-0.573691
0.618571
-0.140741
0.509538
-0.223315
0.907923
0.83706
0.00577907
-0.816841
0.736463
0.039928
-0.0718878
0.0319598
0.62193
0.0950541
-0.0124385
0.0686047
-0.0561662
0.00934139
-0.00934139
-0.757985
0.0227205
-0.0431996
0.0610388
-0.0874994
0.0874994
0.00725645
-0.00244582
0.731393
0.0860775
-0.319857
-0.096567
-0.520402
-0.0747155
-0.0677915
0.0677915
-0.0526589
0.0800954
-0.0800954
0.0273467
-0.0273467
-0.35398
-0.0744274
0.242732
0.0694685
0.0513968
-0.732476
-0.0603701
0.162218
0.0163515
-0.250595
0.079886
-0.079886
-0.466015
-0.0476741
0.233223
-0.013105
0.00268195
-0.643138
0.650677
0.017506
-0.0701649
0.0340393
-0.0592881
-0.0119182
-0.155028
0.166946
-0.151472
-0.211455
-0.0824444
0.0824444
0.0559746
-0.0559746
-0.0304179
-0.0945638
0.124982
-0.000173702
-0.186552
-0.0143009
0.0122868
-0.279406
0.591557
-0.0258677
0.436315
0.00548041
-0.000802707
-0.0520819
0.0520819
-0.728862
0.320967
-0.128809
-0.210514
-0.0233746
-0.0178075
0.0204894
0.202425
0.0323767
-0.000395471
-0.000370288
0.0821107
0.0295321
0.054549
0.107669
-0.00649276
-0.00224779
0.000915583
0.0054986
0.00601231
0.00883798
-0.0148503
-0.000180126
0.00498094
0.0288032
-0.0288032
0.0507972
-0.0410137
0.0410137
-0.191334
0.0046959
0.0258919
-0.0758192
0.0180054
0.075823
-0.075823
0.25683
-0.241416
0.089944
-0.0679357
-0.173481
-0.0172089
0.0172089
0.405704
0.251329
-0.516896
-0.0808703
-0.0360497
0.540442
0.0338656
-0.068006
-0.453905
0.0875896
-0.155074
0.171861
-0.0167866
-0.0462908
0.0462908
0.858794
-0.59356
-0.0123041
0.0121239
-0.00565712
-0.28297
-0.000209417
0.00505498
-0.0436195
-0.624186
0.568076
-0.670521
0.014653
0.213104
0.0157095
0.0247352
-0.160731
-0.336756
0.260936
-0.0575892
0.0271713
0.169959
0.132736
0.205521
0.267345
-0.251635
0.00675423
-0.113011
-0.224287
0.0691835
-0.0146345
0.163271
-0.138536
-0.0685094
0.15062
-0.404686
0.124102
-0.106097
0.0589203
-0.475979
0.176916
0.174845
-0.243354
0.00458547
-0.175501
0.175291
0.00406299
0.146557
-0.0280741
0.0516218
0.456901
0.0115943
0.0274066
-0.00792436
0.0355775
-0.241074
-0.202944
0.589873
0.171605
0.0616172
0.0808932
-0.0629392
0.0553578
-0.023398
-0.0301486
0.168194
-0.153541
0.0148043
-1.7252e-05
-0.104007
-0.0289436
0.0125566
0.252485
0.00623322
-0.00393034
-0.314206
-0.00793605
0.215496
0.142281
0.178686
0.0571746
0.099114
0.0526219
0.541991
-0.0139347
0.100945
0.0447831
0.0641238
-0.108907
-0.265567
-0.199456
0.0259747
-0.223495
0.288232
)
;

boundaryField
{
    FrontBack
    {
        type            empty;
    }
    Top
    {
        type            calculated;
        value           uniform 0;
    }
    In
    {
        type            calculated;
        value           uniform -1;
    }
    Bottom
    {
        type            calculated;
        value           uniform 0;
    }
    Out
    {
        type            calculated;
        value           nonuniform List<scalar> 10(1.14672 1.02604 1.2365 0.996925 1.134 1.00384 1.19772 1.04689 0.609538 0.601827);
    }
    circle
    {
        type            calculated;
        value           uniform 0;
    }
}


// ************************************************************************* //
