/*--------------------------------*- C++ -*----------------------------------*\
| =========                 |                                                 |
| \\      /  F ield         | OpenFOAM: The Open Source CFD Toolbox           |
|  \\    /   O peration     | Version:  2412                                  |
|   \\  /    A nd           | Website:  www.openfoam.com                      |
|    \\/     M anipulation  |                                                 |
\*---------------------------------------------------------------------------*/
FoamFile
{
    version     2.0;
    format      ascii;
    arch        "LSB;label=32;scalar=64";
    class       volVectorField;
    location    "29";
    object      U;
}
// * * * * * * * * * * * * * * * * * * * * * * * * * * * * * * * * * * * * * //

dimensions      [0 1 -1 0 0 0 0];

internalField   nonuniform List<vector> 
808
(
(0.896602 -0.00923138 0)
(1.02011 -0.0353931 0)
(1.2746 0.122756 0)
(1.06733 0.00907757 -2.72344e-21)
(1.46016 -0.295024 0)
(0.962034 -0.0301514 0)
(1.1524 -0.0369499 -2.66471e-21)
(1.11759 -0.018724 0)
(1.33522 -0.231068 1.82375e-20)
(1.23046 -0.101622 -1.29629e-21)
(1.23943 -0.14854 2.85628e-21)
(1.36219 -0.263209 0)
(0.995072 -0.022727 0)
(0.749045 -0.0205535 0)
(1.05138 -0.00591627 2.28964e-20)
(1.09443 -0.0175313 0)
(0.946581 0.0238365 -7.83237e-21)
(1.00162 -0.0276122 -1.15112e-22)
(1.30811 0.0937839 0)
(1.12717 -0.00111354 0)
(1.29798 -0.131837 -3.98651e-21)
(0.928791 0.128292 1.09566e-19)
(1.07335 0.00867021 -1.1907e-20)
(1.17842 -0.0458651 0)
(0.958471 0.193716 0)
(1.29062 0.00219391 -3.36564e-20)
(1.26861 -0.186273 1.21368e-21)
(0.976068 -0.0297009 -4.07715e-21)
(1.1032 -0.0369349 0)
(1.05382 0.0424393 -1.98246e-22)
(1.00722 -0.0467989 5.07655e-24)
(1.12835 -0.0181211 0)
(1.0387 0.046396 0)
(1.09278 -0.0364138 3.44482e-21)
(1.29797 -0.0966062 5.57801e-21)
(0.74183 -0.103051 1.13744e-19)
(0.879185 -0.0242 -6.4633e-21)
(1.03554 0.0446003 7.30985e-22)
(1.18743 0.0351023 -3.43563e-21)
(1.0804 0.0318513 0)
(1.26429 -0.085383 -1.0234e-20)
(1.27196 -0.143265 0)
(1.00433 -0.00246691 -6.83539e-21)
(1.13271 -0.051727 6.4412e-21)
(1.16283 -0.124383 0)
(1.01106 0.0167539 -1.8073e-20)
(1.00913 0.039822 1.68684e-21)
(1.24255 -0.254961 -8.09583e-21)
(1.16804 0.0497126 -6.40547e-21)
(1.3884 -0.198197 -2.63457e-20)
(1.14947 -0.0412729 4.40077e-21)
(1.14952 -0.078737 0)
(1.11768 -0.00503072 6.12219e-21)
(1.14667 -0.0629889 0)
(1.33152 0.215437 5.83036e-21)
(1.06351 0.0468119 -2.26966e-21)
(1.21463 -0.0843487 0)
(1.15183 -0.152155 2.1396e-21)
(1.23256 -0.106391 1.39146e-21)
(1.14401 0.0425032 -2.0245e-22)
(-0.201257 -0.309802 0)
(1.21033 -0.214576 -9.9729e-22)
(1.12897 -0.0849771 0)
(1.42155 -0.124904 -2.1965e-20)
(1.13272 -0.0678445 -7.46016e-21)
(1.0401 -0.0288631 -7.15943e-21)
(1.29133 -0.149504 2.11236e-20)
(0.64652 0.0123744 0)
(1.17264 -0.0746691 0)
(1.41621 -0.353237 0)
(0.901347 0.0240702 -2.37046e-22)
(1.20927 -0.147493 -3.38685e-20)
(1.00818 0.0347252 0)
(1.05529 -0.0471397 -3.33226e-21)
(1.11253 -0.330678 -6.24691e-20)
(1.16544 -0.0463809 -4.53669e-21)
(1.15496 0.0259731 3.09253e-22)
(1.33561 0.498058 2.57873e-20)
(1.11576 -0.0359374 0)
(1.01876 0.290035 -1.79079e-19)
(1.3349 -0.00449018 1.76865e-20)
(0.757751 0.0203196 0)
(0.850946 0.0410645 -9.13129e-21)
(0.967441 -0.107493 4.57306e-21)
(1.14457 -0.0548045 2.77096e-21)
(1.20243 0.0084712 1.31983e-21)
(1.25625 -0.236799 0)
(1.35921 0.281393 0)
(1.09337 -0.00261457 -1.57044e-20)
(1.43989 0.035053 3.49097e-20)
(1.08542 -0.0226493 1.55349e-20)
(1.31031 -0.139328 -1.03841e-21)
(0.965551 0.0271866 1.64916e-20)
(1.00419 -0.0247198 0)
(1.10987 0.0134243 1.34592e-21)
(1.2278 -0.120809 -5.53421e-20)
(0.755944 0.0231167 -2.24916e-21)
(1.31006 -0.0642231 0)
(1.32305 -0.109341 0)
(1.39349 -0.122253 -3.3696e-20)
(1.12187 -0.0385208 -2.85576e-21)
(1.13475 0.00662311 -7.76471e-23)
(0.950357 0.025062 1.27723e-20)
(1.1968 0.00587406 -3.63589e-22)
(1.35258 0.0107293 -2.2568e-20)
(1.00135 0.00520934 1.1772e-20)
(1.42454 -0.0698684 0)
(0.759461 0.0264368 0)
(1.09412 0.0350057 4.95941e-21)
(1.19148 -0.222135 -1.0392e-20)
(1.29673 -0.0047928 1.1022e-20)
(1.05047 0.0499621 -1.21007e-19)
(1.15622 0.0426554 -1.9607e-21)
(1.11475 0.0691998 7.65612e-21)
(0.789122 0.0223661 0)
(0.91685 -0.0421743 7.7797e-20)
(1.14629 0.0268522 -5.79894e-21)
(1.40623 -0.267324 -1.35709e-20)
(1.13211 -0.0533597 -5.34747e-21)
(0.932192 0.0138989 2.59643e-21)
(-0.207686 -0.144816 0)
(0.856037 -0.0173938 1.81499e-21)
(0.79579 0.0252436 0)
(1.06312 3.21763e-05 -1.06088e-22)
(1.01358 0.0283875 0)
(1.32309 0.315241 9.39435e-21)
(1.03255 -0.0558908 -3.57597e-20)
(1.21583 0.124406 4.05607e-21)
(1.14786 -0.0678566 0)
(1.09232 -0.0245424 0)
(0.513477 -0.0218414 0)
(1.12682 -0.0393698 -3.13009e-21)
(1.25749 -0.0608557 5.69932e-21)
(1.07021 0.113711 -3.13262e-20)
(0.843128 -0.0156893 0)
(1.10481 0.0260564 -1.38747e-21)
(1.05028 -0.114267 1.27687e-21)
(1.18036 -0.0447321 -1.67699e-21)
(0.991555 0.0339554 3.93533e-21)
(1.13485 0.00481411 6.50952e-23)
(0.0324119 0.106172 0)
(1.09612 -0.0256275 -1.72962e-20)
(1.18471 0.0604251 -9.52082e-22)
(0.714139 0.0238074 -3.55313e-21)
(1.26892 0.163989 2.10404e-21)
(0.906846 -0.105293 5.56517e-21)
(1.04586 0.0161609 1.87239e-20)
(0.990019 0.0266666 0)
(1.09877 -0.0619297 4.05068e-21)
(0.898528 -0.0293573 0)
(0.940839 0.0282957 7.36871e-21)
(0.971163 0.290035 1.43478e-19)
(0.974123 0.0343772 0)
(0.818817 0.111004 0)
(-0.0984392 0.0957804 -7.54511e-20)
(1.34618 0.121084 -1.47565e-20)
(0.69051 -0.0213836 0)
(1.47243 -0.0281039 0)
(1.16582 -0.059353 0)
(1.35536 0.0588202 1.65973e-20)
(-0.0325827 -0.0358231 0)
(-0.050398 0.141739 3.67103e-20)
(0.924154 -0.0597492 6.09812e-20)
(1.00745 0.0406797 1.09876e-21)
(0.856431 0.000273416 0)
(1.02936 -0.0398857 8.28915e-21)
(0.890878 0.0235081 0)
(0.657134 -0.0339057 -6.59212e-20)
(1.01853 0.0401004 1.09587e-20)
(1.12093 -0.0732988 2.36485e-21)
(1.09589 0.00999965 7.40558e-21)
(1.01583 0.0720045 -1.11745e-20)
(0.60688 -0.133882 -5.54063e-21)
(1.12906 -0.346524 8.34306e-22)
(0.916838 -0.0255907 0)
(1.06857 -0.000873861 -1.55698e-20)
(0.871831 0.0101475 -9.8839e-21)
(1.36745 -0.18362 1.5766e-21)
(0.698647 0.0225426 0)
(1.01711 -0.143141 0)
(1.09954 -0.0560417 1.91558e-21)
(1.40256 0.207325 1.1917e-20)
(1.11661 0.0194079 5.40335e-21)
(1.03705 0.0175351 2.08646e-20)
(0.833626 -0.0452676 -8.55156e-20)
(0.81266 0.00351908 1.82406e-20)
(1.13332 -0.0164155 4.0559e-21)
(1.39132 -0.114451 -4.02258e-21)
(1.09942 -0.0629701 -4.63691e-21)
(1.32726 -0.0666377 3.44686e-21)
(-0.111867 0.102752 5.56059e-20)
(1.28596 -0.0494125 0)
(0.619628 -0.0217634 0)
(1.06149 -0.0285961 -7.87703e-21)
(1.10171 0.0117555 7.17994e-21)
(0.124306 0.092089 0)
(0.875005 -0.0199655 3.36859e-22)
(1.0838 -0.0448754 -3.36523e-21)
(0.979487 0.0191876 1.46787e-21)
(1.07903 0.0345969 -6.77864e-21)
(1.00499 0.0205567 2.76997e-21)
(1.02834 -0.0349379 2.96855e-21)
(1.05198 0.0331926 0)
(0.311973 -0.0300196 0)
(1.0486 -0.0620989 0)
(1.18576 0.0981968 -3.30191e-20)
(-0.0400701 -0.0270443 4.23554e-20)
(1.09628 0.014569 -1.53699e-23)
(1.20509 0.17612 0)
(0.746607 0.0194884 -7.27121e-21)
(1.19435 -0.140613 7.89116e-22)
(-0.00454357 -0.037059 -1.31557e-19)
(0.706417 -0.0222771 -3.48855e-20)
(0.634327 -0.0213083 0)
(1.00564 -0.127786 0)
(0.942397 0.0342027 8.67192e-21)
(0.982873 -0.109596 4.89993e-21)
(1.29204 0.396508 3.02092e-21)
(1.13768 -0.129612 1.8848e-23)
(1.09049 -0.0898984 -5.53143e-21)
(0.999878 -0.15244 0)
(1.37582 0.422149 -4.56543e-20)
(0.666738 -0.011521 0)
(0.803636 -0.0236521 -4.15855e-21)
(1.05684 -0.0301845 1.51198e-22)
(0.594878 0.0151229 0)
(1.10078 -0.00609887 0)
(0.0293925 -0.0438192 -3.43314e-20)
(1.01623 -0.0831765 -1.38206e-20)
(0.725409 -0.0231456 2.71437e-21)
(0.990313 -0.00332331 0)
(0.569805 -0.016206 0)
(0.765288 -0.0194614 -4.19898e-21)
(0.537334 -0.023976 -6.78449e-22)
(1.31748 0.0075324 2.96931e-22)
(1.29605 0.159385 -3.13592e-21)
(0.703548 0.0179899 -1.81183e-21)
(1.10877 -0.0513977 2.16532e-22)
(1.1634 -0.145511 -1.77622e-23)
(0.551132 0.0155232 4.71329e-21)
(1.20011 -0.0861636 -2.46556e-22)
(1.15074 -0.0494837 0)
(0.886967 -0.218125 0)
(0.502776 0.01797 0)
(1.02917 -0.0250093 0)
(1.23167 0.0274162 -2.1377e-21)
(1.00669 -0.0900081 0)
(1.13861 -0.0365364 0)
(0.994779 -0.0929855 0)
(1.02063 -0.158388 0)
(-0.0165599 -0.0198413 4.02523e-20)
(1.28947 -0.0272211 8.78676e-22)
(0.99924 -0.108258 0)
(1.37815 -0.00158555 1.83958e-20)
(1.21028 -0.0259316 1.26621e-21)
(1.10247 0.053957 1.84829e-21)
(1.15603 0.0536679 5.13496e-21)
(1.19442 -0.00130171 0)
(0.592645 -0.0136514 8.52937e-21)
(1.05297 0.0410339 1.08683e-20)
(1.13555 0.0188308 0)
(1.24557 -0.0756111 -8.89837e-22)
(1.17405 -0.0334439 2.30699e-21)
(0.566945 0.279725 -5.77258e-21)
(1.1515 0.0479685 2.25364e-21)
(1.23773 -0.00192244 -3.90368e-21)
(0.948035 0.0778555 0)
(1.13155 -0.0356213 -2.51423e-20)
(1.04644 0.0106127 -6.40811e-21)
(0.682118 -0.165154 -4.13953e-21)
(0.922985 0.202278 0)
(-0.0154709 -0.0191552 0)
(0.977407 0.116892 -1.73734e-20)
(1.19846 -0.031109 0)
(1.21273 -0.0402883 3.04225e-21)
(1.13937 0.0266233 1.12621e-21)
(1.25701 -0.0694604 3.75309e-21)
(1.1038 0.0289982 -1.85847e-21)
(1.33175 -0.0846183 8.15689e-20)
(1.01065 -0.317218 6.30639e-20)
(1.12187 -0.00534397 -7.70217e-22)
(1.0593 0.134512 0)
(0.853058 0.168117 0)
(0.907824 0.00338179 -3.19102e-20)
(1.17777 -0.103129 -2.22874e-20)
(1.22448 0.0548077 0)
(0.515602 -0.276325 5.19827e-21)
(0.318418 0.197138 0)
(0.6658 0.209248 7.31443e-21)
(0.76605 -0.177209 -6.10775e-21)
(0.831082 0.0288574 -5.26621e-21)
(1.12361 0.0433765 0)
(1.25228 0.0841248 -1.3137e-21)
(1.12925 0.132628 3.02818e-21)
(0.64615 0.0450841 -1.01761e-20)
(1.17546 0.0590599 -4.61585e-21)
(0.868605 0.0743245 0)
(1.09202 0.06702 0)
(0.972935 0.096404 1.14793e-20)
(0.753617 0.0955821 -7.38875e-21)
(1.23929 -0.0163131 9.71893e-21)
(1.16736 -0.00478443 -4.66198e-21)
(1.02055 0.170639 6.99166e-22)
(1.18062 -0.0253188 0)
(0.404731 -0.135337 1.22252e-20)
(1.33271 0.0535033 -2.23663e-20)
(0.952297 -0.0205091 4.8203e-21)
(0.187818 0.305836 6.10266e-21)
(1.41103 -0.166689 1.9238e-20)
(0.96596 -0.109278 8.08413e-20)
(1.1647 0.113053 -1.1665e-20)
(1.1285 -0.00838105 -9.91867e-22)
(-0.0682206 -0.0287005 -7.22929e-21)
(1.00107 -0.00739375 0)
(1.03469 -0.0849914 -1.69424e-20)
(0.849639 -0.0330476 7.14297e-21)
(1.11118 -0.0597328 3.95811e-21)
(0.669785 -0.0869581 -5.59873e-22)
(0.506859 -0.0176198 1.86934e-22)
(1.39835 -0.386645 -1.48682e-20)
(1.16498 0.0414906 0)
(1.04503 0.0290647 -2.46998e-21)
(1.15025 0.0407153 -2.21746e-21)
(1.26545 0.0507325 0)
(0.663283 0.174248 -1.8821e-21)
(1.14972 0.0243381 3.33721e-21)
(0.608189 -0.17339 2.23701e-20)
(1.14306 -0.0260911 -1.45696e-21)
(0.874063 0.164327 2.57533e-21)
(-0.0400551 0.0520963 0)
(0.647998 0.304225 3.11305e-20)
(1.18561 0.0554975 0)
(1.0079 0.26757 1.22579e-20)
(0.931135 0.273142 0)
(1.12295 -0.00764212 1.69906e-21)
(1.01574 0.0257693 0)
(1.03581 0.148174 0)
(1.39128 -0.145011 1.68471e-20)
(0.792224 -0.0772687 0)
(1.23105 -0.227749 3.99658e-21)
(1.1155 -0.0441314 1.30187e-22)
(1.07812 0.0369308 2.66469e-21)
(1.2195 -0.0768956 -2.75044e-21)
(1.24616 0.106596 -7.89099e-21)
(1.22131 -0.107497 1.96477e-20)
(1.20916 0.026095 0)
(1.19246 -0.027942 0)
(1.14235 0.0169571 2.06361e-21)
(1.20546 -0.0164651 0)
(1.44551 0.200467 -3.023e-20)
(0.713026 -0.197457 -2.04428e-21)
(1.02711 0.0148594 1.96352e-20)
(1.29526 0.0255939 -3.07849e-22)
(-0.0147775 0.0426012 0)
(-0.0220625 -0.0236871 0)
(0.0332908 0.00415343 -3.3959e-20)
(-0.0712634 -0.0479624 0)
(0.670882 -0.235482 -1.00538e-20)
(1.17493 0.0340247 -2.56565e-21)
(1.2019 -0.0559456 -4.3807e-21)
(1.23474 0.0142241 -6.38133e-22)
(1.18023 -0.0168104 0)
(0.67988 -0.0183797 -2.07842e-21)
(1.16151 0.00193733 0)
(1.15901 0.0138817 2.21376e-21)
(0.491074 -0.107482 0)
(0.829943 -0.163694 -1.12046e-22)
(1.11132 0.0179597 0)
(1.13522 0.0392898 0)
(0.714675 -0.0325047 4.58448e-20)
(0.668034 -0.117938 -6.51369e-22)
(0.71565 -0.118259 1.4376e-21)
(1.01159 0.0182899 -1.05018e-20)
(0.13052 -0.060882 0)
(1.25646 -0.170842 -9.96683e-21)
(1.22489 0.106332 -5.41544e-21)
(1.15111 -0.165155 -3.31674e-21)
(0.821614 -0.0450706 -5.64497e-21)
(-0.0564123 0.0231467 -9.08266e-20)
(1.1113 0.0593878 0)
(-0.0357753 0.0489951 0)
(1.14302 0.112191 5.623e-21)
(0.477732 0.16582 6.07539e-21)
(1.14138 0.0623869 -5.51698e-21)
(1.12156 -0.0347702 0)
(1.20159 -0.0983551 3.675e-21)
(1.0946 -0.0849042 -3.86751e-21)
(0.515423 -0.0447459 -8.11183e-21)
(1.13764 -0.0254891 -1.8589e-21)
(1.19921 -0.0259174 -2.53609e-22)
(-0.117575 0.144133 3.86669e-21)
(1.28968 -0.0458985 -1.76977e-21)
(1.13587 0.0480716 0)
(1.12252 0.034967 0)
(1.18122 -0.0092569 4.83685e-22)
(1.15908 0.102587 4.89436e-21)
(0.383809 -0.0860093 -5.44728e-21)
(1.18837 -0.127681 -2.1709e-20)
(1.1066 0.0598707 6.87165e-21)
(0.525567 -0.000546847 1.12954e-20)
(0.197233 -0.178236 -8.28085e-20)
(-0.129208 -0.327192 8.53697e-21)
(1.17967 0.182421 -6.8496e-21)
(1.21932 -0.488969 2.9564e-21)
(1.44464 0.0614729 -1.6115e-20)
(1.18978 -0.0269017 -5.73196e-22)
(0.930764 -0.224363 9.72443e-20)
(-0.10088 -0.159849 0)
(1.18804 -0.0891211 3.16525e-22)
(0.392462 0.156396 -3.12102e-20)
(1.12946 0.0908838 -4.86559e-21)
(1.1137 -0.0221984 7.6485e-21)
(1.10115 0.038571 0)
(0.617878 0.139294 0)
(1.17469 -0.0577301 0)
(1.22017 0.250682 -4.94223e-21)
(1.28036 -0.0272271 -2.29806e-20)
(1.14922 -0.0297773 1.78029e-21)
(0.464196 0.0166566 0)
(0.615324 0.013038 0)
(0.607912 -0.00484374 4.78482e-22)
(0.429866 -0.014195 0)
(1.13498 0.0906795 0)
(1.01999 -0.0133377 2.81476e-20)
(0.164073 0.379948 0)
(0.917333 0.0286745 0)
(1.16001 -0.0425403 0)
(1.18062 0.178744 -1.6928e-21)
(1.28339 0.0511128 1.23336e-20)
(0.96528 -0.0289628 6.22255e-21)
(1.27025 -0.397924 -9.55229e-20)
(0.372567 0.0876736 -5.33301e-21)
(1.2164 -0.0482993 8.17382e-21)
(1.28291 -0.0686066 0)
(-0.332672 -0.22687 0)
(-0.313138 -0.0505456 0)
(1.14897 -0.028314 2.2911e-22)
(1.30693 -0.292201 -1.18273e-20)
(1.35151 0.170369 0)
(1.1047 0.0252415 -8.58119e-21)
(0.280878 -0.238676 0)
(1.49008 -0.18418 5.71781e-20)
(0.418385 0.53083 1.05134e-19)
(0.253218 -0.0296233 0)
(1.07753 -0.275375 1.02524e-19)
(0.362457 -0.174999 0)
(-0.132378 0.0483251 1.04744e-20)
(1.40054 0.123694 0)
(-0.072106 -0.0752797 -2.10853e-21)
(0.983734 -0.0502196 0)
(1.21554 -0.0224681 -4.84483e-22)
(-0.153249 0.0179225 -7.09866e-21)
(1.12192 -0.0257082 1.42842e-21)
(1.22682 -0.187589 -1.5939e-22)
(0.564439 -0.497559 -9.48587e-20)
(1.12681 -0.0372074 -2.22063e-21)
(1.19025 -0.134203 6.95992e-21)
(1.19001 0.247173 -1.58513e-20)
(1.11922 0.00266963 8.59083e-21)
(1.14455 -0.0107552 5.51657e-23)
(-0.116534 -0.304195 -6.24217e-20)
(0.111656 0.123408 -8.61108e-21)
(1.16915 0.0156102 3.44876e-21)
(1.06039 -0.0506519 0)
(0.43412 -0.107269 -9.3238e-21)
(1.38119 -0.440885 6.83907e-20)
(0.889533 -0.070476 -4.86273e-20)
(1.47252 0.124306 9.11893e-20)
(1.09132 -0.0570236 2.99337e-21)
(1.2974 -0.091367 8.83728e-22)
(1.06112 -0.00866428 0)
(1.1895 -0.0250756 0)
(1.23418 -0.00927222 -7.52595e-22)
(1.08784 -0.0214842 -4.44109e-21)
(1.07683 0.019961 -8.73017e-21)
(1.08287 0.0386429 -7.68167e-21)
(1.4388 -0.0678755 -4.02179e-20)
(0.475201 0.0352082 0)
(1.26914 -0.00854204 2.71005e-21)
(1.37127 0.103843 0)
(1.09711 0.051606 -4.3045e-21)
(1.14087 0.0191686 0)
(1.04262 -0.00993552 1.50821e-20)
(1.2267 0.0262322 1.58329e-20)
(1.12115 0.0056506 0)
(0.0519016 -0.0283746 1.40129e-19)
(0.881191 -0.202401 -7.62689e-20)
(1.22526 -0.0971944 -2.40226e-20)
(-0.128694 0.0335545 4.08809e-20)
(1.20618 0.0392663 3.41684e-22)
(0.688798 0.0258142 7.8936e-21)
(-0.100145 0.0803519 -4.26123e-20)
(-0.0304223 0.0808149 -2.83397e-20)
(1.01715 -0.0296673 0)
(-0.0252169 -0.0247535 0)
(1.27241 0.019251 0)
(0.110876 -0.0893534 0)
(1.114 -0.0241219 0)
(0.134097 0.0339041 0)
(1.11325 0.0602795 0)
(1.25759 0.182032 0)
(1.30647 0.126548 -3.90135e-21)
(0.564172 -0.27962 -1.87368e-20)
(-0.147663 0.119568 0)
(1.08728 -0.102549 5.05897e-20)
(1.21612 -0.0853748 2.09011e-21)
(1.33354 -0.00916899 0)
(-0.0347494 -0.0368092 0)
(1.15443 0.00581958 3.26276e-21)
(1.15855 -0.0119721 -1.53726e-21)
(1.18013 0.393445 0)
(0.199343 -0.0461378 4.95563e-20)
(1.11951 0.05261 9.89849e-22)
(0.226909 -0.050386 -4.76592e-20)
(-0.0612516 0.0538283 -3.5225e-20)
(-0.0346487 0.0502942 9.01606e-20)
(0.675584 0.0818728 4.75097e-20)
(1.10963 -0.0905481 -7.42732e-21)
(1.12523 0.0667376 -4.54336e-21)
(1.02296 -0.00837075 0)
(1.06923 -0.0714752 -2.41624e-20)
(1.25891 0.0795501 -1.32558e-20)
(-0.00783868 0.0162479 9.51125e-20)
(0.977038 -0.0696704 -6.18919e-20)
(0.528461 0.0803822 1.46856e-20)
(1.04399 -0.0726121 -5.32119e-21)
(0.0725521 -0.0285485 2.97474e-20)
(0.239338 -0.0367367 -4.28087e-20)
(0.364379 -0.0406014 -4.49156e-20)
(1.18192 0.177883 1.4952e-21)
(-0.0491169 -0.0260013 0)
(0.875416 0.118011 1.03966e-20)
(1.17394 0.00648559 3.30444e-21)
(1.12924 0.0528059 -3.18562e-21)
(1.27727 -0.0650685 0)
(1.50174 -0.237421 5.86736e-20)
(1.12602 0.0395615 -3.18334e-21)
(-0.00864805 -0.00450844 -3.10551e-20)
(0.362698 0.0805516 0)
(0.908016 0.0240887 -2.17262e-21)
(1.1398 0.0263746 2.94908e-22)
(0.693375 -0.170794 3.13199e-21)
(1.15318 0.00596454 -1.16554e-21)
(1.11703 0.0455917 0)
(1.11391 -0.172169 -1.30217e-20)
(-0.110681 -0.0316966 -5.73144e-20)
(1.31717 -0.0444882 1.74524e-20)
(1.10743 0.173909 -9.01902e-21)
(1.09348 0.0306455 8.78541e-21)
(-0.0336924 -0.0303362 1.34787e-20)
(-0.0293648 0.0578746 -7.01836e-20)
(0.629675 -0.0189006 0)
(0.881852 0.0927679 0)
(1.15466 0.0926516 -1.30325e-20)
(1.0527 0.0671044 1.12802e-20)
(1.13402 0.0111086 0)
(0.375646 -0.0659187 3.36235e-20)
(0.763045 0.0892407 -1.2576e-20)
(1.10079 0.105924 0)
(1.09905 0.0185899 0)
(1.41267 0.147992 0)
(1.23892 0.0834379 0)
(1.22897 -0.0569327 1.23914e-21)
(-0.0429168 0.0475936 3.8476e-20)
(1.19238 0.0923681 3.85774e-21)
(1.37506 -0.202286 -6.60028e-20)
(1.32048 -0.00293694 -3.32777e-21)
(0.0542981 -0.0937124 0)
(1.20578 -0.0271916 0)
(0.618587 -0.01364 -2.88503e-22)
(0.558086 0.00879075 -6.4062e-20)
(0.0770131 0.0361966 5.17869e-20)
(0.947479 0.0268176 2.79476e-21)
(0.727098 -0.268119 0)
(0.660266 -0.0886649 0)
(1.29744 0.0279163 0)
(0.548783 0.523982 2.77596e-20)
(-0.02266 0.0574856 -3.21695e-20)
(1.00159 -0.0933532 -1.65645e-21)
(-0.0158143 0.00520674 5.77881e-20)
(1.09677 -0.0375311 3.37473e-21)
(1.18413 0.315471 3.02318e-20)
(1.1115 -0.0946983 1.01491e-20)
(0.348177 -0.213236 8.13608e-20)
(0.969487 -0.0202127 5.66454e-21)
(1.23595 -0.156565 0)
(0.570595 0.276626 0)
(0.952495 0.067865 -8.16802e-22)
(-0.217595 0.062789 0)
(0.614238 0.0281902 2.54842e-21)
(0.592165 -0.408368 -2.48229e-21)
(0.248692 0.0501166 -1.20277e-19)
(1.11875 -0.224881 3.92365e-20)
(1.04706 0.37329 9.71794e-21)
(0.979072 0.0250441 0)
(1.24396 -0.146246 1.26783e-22)
(0.642572 0.0143881 0)
(0.979125 -0.0192901 -5.91563e-22)
(0.419056 -0.0161164 0)
(0.712662 0.144968 0)
(0.9998 -0.0217721 -3.50185e-21)
(1.44994 0.158571 -1.71659e-20)
(1.08656 -0.016608 4.64925e-21)
(0.512572 -0.480546 0)
(1.12971 -0.156647 3.95509e-21)
(0.809876 0.391121 6.87018e-20)
(-0.0386129 0.0200287 1.27111e-21)
(1.19836 -0.0303976 9.18345e-21)
(1.20382 0.0217567 -1.20802e-20)
(1.11337 -0.0185526 9.85068e-22)
(0.79137 0.0127842 -3.70353e-21)
(0.0665163 0.018848 4.07172e-20)
(-0.019301 0.045338 -5.38815e-20)
(-0.262787 0.00512032 0)
(-0.189335 0.132799 0)
(1.16675 -0.606574 2.80777e-20)
(1.14139 -0.0226197 -5.38297e-23)
(0.870829 -0.456749 -3.60755e-20)
(1.00172 0.161994 -2.17073e-20)
(1.39026 0.189338 3.85643e-20)
(0.614084 0.428718 0)
(0.250341 0.427604 -1.10921e-19)
(0.602108 0.498242 0)
(0.13445 0.027242 0)
(1.10923 -0.47206 0)
(-0.0536749 0.102475 -5.91994e-22)
(1.20237 -0.0244007 0)
(0.978969 0.263539 -4.23771e-20)
(0.605505 0.708448 2.11345e-20)
(1.35394 0.254542 1.30303e-20)
(-0.0386658 -0.0360128 -9.43662e-20)
(0.879917 0.317291 -2.39388e-20)
(0.464651 0.147409 -1.44717e-20)
(1.20317 0.0776614 0)
(1.37884 0.352667 4.10833e-20)
(1.23763 0.573634 1.17171e-20)
(0.169864 -0.0167178 -2.42634e-20)
(1.04788 0.127381 3.65465e-20)
(0.930128 -0.0249935 6.33442e-22)
(0.923483 0.0283149 -6.2742e-22)
(-0.00171117 -0.0168272 0)
(0.635661 -0.633634 -3.25087e-20)
(0.614992 0.218431 0)
(0.0218669 -0.0823159 0)
(-0.0529651 0.0841712 0)
(-0.0257156 -0.0501072 -3.51493e-20)
(1.22217 -0.0083995 -1.05768e-20)
(-0.018401 0.0922988 0)
(-0.0418398 0.0955259 0)
(1.43924 0.104518 -8.70201e-20)
(-0.0321482 -0.040299 4.28949e-20)
(0.116787 0.245882 -9.95767e-20)
(0.404748 0.0178758 0)
(0.165904 -0.262839 8.33637e-20)
(1.0623 -0.236908 0)
(0.988929 -0.277332 0)
(-0.0149601 -0.0411293 8.81793e-20)
(1.14407 0.028828 -4.57568e-23)
(1.13532 0.348469 2.61973e-20)
(0.272474 0.0282767 4.9875e-20)
(0.395693 -0.503506 -4.29706e-20)
(1.34687 0.0487873 0)
(1.25053 0.192314 2.42311e-20)
(1.24323 0.207194 -2.97599e-20)
(0.103492 0.103498 -2.33867e-20)
(-0.0649292 0.0800826 0)
(1.068 -0.057455 -1.99409e-20)
(1.09427 -0.219015 -1.92631e-20)
(0.575874 -0.385587 0)
(1.0943 -0.147774 -2.8454e-20)
(-0.0345351 0.097453 0)
(0.653637 0.0514134 0)
(1.46189 -0.00380535 3.52808e-20)
(0.983129 0.0189392 4.79725e-22)
(1.0916 0.756919 -1.24628e-20)
(0.220426 -0.36547 1.39049e-19)
(1.0793 0.0151013 -1.67029e-21)
(1.20663 0.065154 1.30377e-21)
(-0.0577843 0.123231 3.31319e-20)
(0.80028 0.746404 2.38802e-20)
(1.33078 -0.370742 -1.27873e-20)
(-0.140274 -0.225425 6.21675e-20)
(1.15261 0.0473348 0)
(0.338128 -0.0929267 -1.03727e-20)
(0.88101 -0.623286 2.23899e-21)
(0.915085 0.651879 -2.51976e-20)
(0.526159 -0.034893 -5.51261e-20)
(1.13799 -0.0102223 -2.30978e-21)
(1.07555 -0.0869105 8.28331e-21)
(1.15464 0.0676057 8.88045e-22)
(1.10807 0.118283 2.71146e-21)
(1.12833 -0.132926 0)
(0.936718 0.107713 1.5899e-20)
(0.902994 0.465636 0)
(1.30243 0.154443 4.65618e-21)
(1.16969 0.104859 -1.60846e-21)
(0.768505 0.267705 0)
(0.535049 0.111748 1.14731e-19)
(0.905785 0.72607 -6.48622e-22)
(1.08632 0.294053 -2.01191e-20)
(1.04352 -0.0121577 1.38424e-20)
(0.420486 0.510968 0)
(1.27782 -0.469265 0)
(0.713061 -0.202946 5.62549e-21)
(1.28199 0.508463 0)
(-0.0203356 0.0667702 -4.65329e-20)
(1.26739 -0.412884 3.47309e-21)
(1.17822 0.516822 0)
(0.453998 0.237579 1.6807e-19)
(1.1442 0.319558 -1.29216e-19)
(0.802569 -0.622663 -2.89785e-20)
(1.16207 0.0706099 -2.11756e-21)
(0.938669 0.153383 8.80294e-20)
(1.09434 0.168956 4.79557e-20)
(1.08581 0.714832 -1.18496e-21)
(0.892496 -0.424316 7.00254e-20)
(1.44814 0.156744 4.65877e-20)
(1.12484 0.00539717 -4.92223e-22)
(0.00317558 -0.0234087 7.97234e-20)
(1.0647 -0.689885 1.52255e-20)
(0.856579 -0.7036 6.16755e-20)
(0.246301 -0.307552 0)
(0.969993 -0.141384 7.68418e-20)
(0.366017 0.328913 -4.36203e-19)
(-0.159018 0.00187463 1.88705e-20)
(0.268142 0.0579154 2.50467e-20)
(0.655117 -0.0576391 -6.54569e-20)
(1.092 0.539382 0)
(0.996226 0.227116 7.82787e-20)
(1.08613 0.0292848 3.08444e-21)
(0.921192 0.454864 -8.85769e-20)
(0.765603 -0.708875 -1.01838e-20)
(0.927871 0.0322386 -4.95958e-20)
(0.987182 0.500708 0)
(1.22634 0.265651 -1.97514e-20)
(1.3617 -0.51091 1.06159e-20)
(1.21556 -0.337409 7.97297e-21)
(-0.184447 -0.0617551 4.00647e-20)
(0.193796 0.028717 -1.82299e-20)
(0.970472 -0.11184 -5.9186e-20)
(0.360158 0.543615 0)
(0.918033 0.0270374 3.95178e-20)
(1.17313 0.644606 8.79314e-20)
(-0.117206 -0.0579612 1.21633e-19)
(-0.0675866 0.122897 -2.77847e-20)
(-0.0856475 0.00574232 3.85377e-20)
(1.09523 0.019388 -4.07138e-21)
(1.11009 -0.454064 0)
(1.05012 -0.720274 -5.21471e-20)
(0.704174 0.364785 0)
(-0.0123886 -0.0549812 -8.32181e-20)
(1.11008 0.0177479 5.90807e-21)
(-0.0297223 0.000894848 -2.54214e-20)
(1.04977 0.0537918 -1.24562e-20)
(0.110712 0.0361309 6.02759e-20)
(0.871394 0.128876 0)
(1.38689 -0.0815449 3.93136e-20)
(0.0749009 0.0767886 -2.8436e-20)
(-0.250951 0.0169131 -4.7565e-20)
(-0.280769 0.0546368 0)
(0.0778559 -0.00471301 0)
(1.34564 -0.0381806 -9.17825e-21)
(0.365677 -0.00975573 1.34508e-19)
(1.24616 -0.715258 -9.922e-21)
(0.954903 -0.270039 2.23779e-20)
(1.08016 0.254037 -2.80638e-20)
(0.359445 -0.535392 1.45292e-19)
(1.57012 0.268512 -3.85936e-20)
(0.0447036 -0.0274496 3.0445e-20)
(0.21096 0.327808 1.94437e-19)
(0.0778605 -0.00978104 -1.15194e-19)
(0.932853 -0.480917 -4.55551e-20)
(1.47312 0.387285 3.89617e-20)
(0.553893 -0.657358 5.2674e-20)
(1.10567 -0.0849171 -8.03651e-21)
(0.155828 0.0156009 4.43134e-20)
(1.20645 0.293016 -5.19491e-20)
(0.67075 0.656721 -3.88692e-20)
(1.31437 -0.615329 0)
(1.43904 0.523387 3.63365e-20)
(1.03938 -0.517898 -1.18061e-20)
(1.4075 0.612676 -1.11517e-19)
(1.19187 0.0433438 0)
(-0.0556704 0.113641 0)
(1.26769 0.739237 0)
(1.22023 0.100632 -4.37377e-21)
(0.732894 -0.286895 -2.12019e-19)
(0.47557 -0.065147 0)
(-0.0537415 0.135031 -2.80646e-20)
(1.01726 -0.241595 1.06573e-19)
(-0.338331 -0.136508 0)
(0.321977 0.0468284 1.23176e-20)
(1.15264 0.0419182 0)
(1.43847 0.271521 0)
(1.19745 0.0660113 2.2675e-21)
(0.35716 -0.270902 0)
(1.01688 0.153586 3.61565e-20)
(1.32906 0.284254 0)
(-0.0882272 0.122965 -1.04707e-21)
(0.805916 -0.381101 0)
(1.53419 0.330731 -5.79688e-20)
(1.25282 0.372637 -2.63684e-21)
(0.851463 0.661353 -9.42757e-21)
(1.01604 0.159284 -8.64494e-20)
(0.964716 -0.197751 -5.15172e-20)
(1.47177 0.289513 3.40983e-20)
(1.0619 0.0974546 0)
(0.564075 -0.0549706 0)
)
;

boundaryField
{
    FrontBack
    {
        type            empty;
    }
    Top
    {
        type            noSlip;
    }
    In
    {
        type            fixedValue;
        value           uniform (1 0 0);
    }
    Bottom
    {
        type            noSlip;
    }
    Out
    {
        type            zeroGradient;
    }
    circle
    {
        type            noSlip;
    }
}


// ************************************************************************* //
