/*--------------------------------*- C++ -*----------------------------------*\
| =========                 |                                                 |
| \\      /  F ield         | OpenFOAM: The Open Source CFD Toolbox           |
|  \\    /   O peration     | Version:  2412                                  |
|   \\  /    A nd           | Website:  www.openfoam.com                      |
|    \\/     M anipulation  |                                                 |
\*---------------------------------------------------------------------------*/
FoamFile
{
    version     2.0;
    format      ascii;
    arch        "LSB;label=32;scalar=64";
    class       volScalarField;
    location    "1554";
    object      p;
}
// * * * * * * * * * * * * * * * * * * * * * * * * * * * * * * * * * * * * * //

dimensions      [0 2 -2 0 0 0 0];

internalField   nonuniform List<scalar> 
808
(
-0.03453099074103323
0.04434342809947462
-0.0112050503915698
0.0364209959152662
-0.299511728756713
-0.0553310876032253
-0.01523065590732249
-0.02408950115048791
-0.1972017901103481
-0.08419551138997339
-0.01050432998607952
-0.2543836442310215
-0.03064922511803632
-0.01364009659765344
-0.120340750490991
-0.01416576757368124
-0.1370141882522685
-0.01368060262294554
-0.01245584898646387
-0.05579639693879487
-0.007200919215060531
0.1175790490730275
-0.06215749252970272
-0.07193303762446782
0.1756328938231763
-0.0999815108207243
-0.1527799192315593
-0.0203938157409238
-0.01746441990433645
-0.0256715962614124
-0.02029463995916376
-0.05862686353358201
-0.0227573271815057
-0.01685964940097579
-0.09990574671027122
0.3444695141803309
-0.0393517572548101
-0.01644652043477257
-0.02283592392077162
-0.02649730483759649
-0.09063379070589885
-0.1270181493562997
-0.05185819244106214
-0.02119460416741211
-0.05408186616804745
-0.04120251339824416
-0.01203134526483911
-0.1848614482050879
-0.02702601705830632
-0.2045412668041428
-0.01685614598994468
-0.06747625977455082
-0.06068182024900511
-0.01437333752558851
-0.1931063935913107
-0.02831685719243794
-0.01052044953392785
-0.01400689116267268
-0.100640309938085
-0.03979334829859563
-0.1104353666463058
-0.1263170542607381
-0.01411322711244703
-0.1296446638800565
-0.01744176975999297
-0.05164787007522619
-0.1655787739942078
-0.03547055855120339
-0.0150802737882403
-0.4410644012860631
-0.02648131005140451
-0.3020705242000198
-0.02162947321101745
-0.02095613003078533
-0.0653084289397846
-0.01777641761528047
-0.04258174890304755
-0.3620417522518565
-0.0361307928558675
0.040654083582661
-0.09111257363142747
-0.01697007377971149
0.05710065154851758
0.04475388265585591
-0.01708477735764775
-0.05230498207052289
-0.5424792674940068
-0.2259020205071296
-0.0522597520972097
-0.1123615838617286
-0.05675179196678243
-0.1330355565873141
0.03953898662305266
-0.02519189553140776
-0.06175910179955225
-0.1215911836006097
-0.03831127140162899
-0.05173445762765447
-0.1165588547571281
-0.1404220845526405
-0.05274152383824925
-0.04737842437079977
-0.05451166585286151
-0.04484906533563005
-0.05740587520623275
-0.07446169602367238
-0.03993816289323677
-0.0107567740657206
-0.04026559360840668
-0.1243361066632056
-0.05038153966585273
0.08239732731643946
-0.04237964365450723
-0.007664347611250458
-0.02761895937298517
0.1806067042336925
-0.03886748449714712
-0.2689431587193216
-0.0206344360793751
-0.0536892652372168
-0.0385989615762648
-0.04879962613229491
0.01343090212386106
-0.04882504249849633
-0.03539186269417033
-0.217002627633903
-0.04139402210315454
-0.004468207454625289
-0.07610643340608896
-0.06874432337561588
-0.1522484036981709
-0.02122338412629875
-0.07543026175731692
-0.04265188347161442
-0.02297400685849735
-0.01567589760331864
-0.006056656919201978
-0.007616289671640189
-0.05239231474192224
-0.04984167810763986
-0.2103284327076797
-0.05671873883922616
-0.00831675979668503
-0.02222844556976392
-0.1471188021691548
-0.002053510608189917
-0.0764556903746529
-0.02229492469768431
-0.0002482471179664867
-0.01007631404625166
-0.03328391395331359
0.09447259991377055
-0.03878348066603773
0.2522316982730756
-0.2588170116130117
-0.1322443554135188
-0.03772242075030435
-0.09073763582525977
-0.008998768363736124
-0.113336553014393
-0.1733420486411945
-0.2125519241860963
-0.1816855240309014
0.05624481605429439
-0.06294788390807726
-0.02048393731622392
-0.06695526484575769
-0.1743050605347093
-0.02338485615934168
-0.01874691315244333
-0.05209037674970254
-0.01940829149042305
-0.006909957183813972
-0.1082794364406851
-0.02331695406241222
-0.04531810461244994
-0.07001815229822006
-0.1616898791231684
-0.03330550643632286
-0.3888881638600364
-0.01784320146465796
-0.2252631678791589
-0.04436569707550807
0.03187767803482647
-0.1049953209054348
-0.01545822253660576
-0.04257027461771692
-0.1054950976972976
-0.01782977842212304
-0.09634634309888399
-0.2028984947750341
-0.07207780677982573
-0.02403593656146939
-0.04837370564932615
-0.04281271685626534
-0.2009455422225392
-0.02223166607339934
-0.01921198963465163
-0.01131820900329954
-0.05610617751181455
-0.05081178141059488
-0.0226348632730584
-0.02064672576621147
-0.2383115122178548
0.1275273811368895
-0.2041291937681048
-0.1968209909983009
-0.0117234729670354
-0.01141208518555797
-0.06700070423944095
-0.009867146769695623
-0.4998337465223133
-0.1274006724671815
-0.01941490944959725
-0.001335329584329107
-0.02391107980320381
-0.2811742440023091
-0.2766140212186519
-0.007491698653120688
-0.01793901074923913
-0.002219987032838864
-0.3474083883229802
-0.02849092283959615
-0.02933241179630369
-0.01264154990238281
-0.01954107087443349
0.04971846384350169
-0.1221239212019401
-0.01398048045795868
-0.02085459777203746
-0.04427599556718262
-0.01833110567331995
-0.01633076120216364
-0.02345571331208364
-0.06736287392257913
-0.01133804844479484
-0.018949714869957
-0.008866395650162746
-0.001317728458135297
-0.02938185063707129
-0.001929655458002192
-0.002069841143744744
-0.005889615969595657
-0.02552606423368033
-0.008110178828600875
0.001658430448058592
-0.004091473387773987
0.001174459524922063
0.002339688162107933
-0.008670538048222372
-0.1321857914198363
-0.002960560466475143
-0.0002730352655033011
-0.0476200892928479
-0.02138068188758535
-0.024190955189752
-0.01410851374447149
-0.006156124486467568
-0.02106273813532745
-0.03879020516468422
-0.01486376337663489
-0.01261710930284802
-0.01182052817010764
0.005672930603899061
-0.009782041893826501
-0.01303478543919286
-0.01130759796553207
-0.01027977714826268
-0.01004944376650044
-0.01091685605755801
-0.01373843385223836
-0.2974223436652852
0.05999942290783981
-0.01508869825608516
-0.01607847694788122
-0.01256051114275483
-0.01253298294944827
-0.008340027274544613
-0.09961607316771848
0.01081965534230531
-0.01428692060845364
-0.01419701097948269
-0.0107138661150743
-0.05202683921943848
-0.008215208799919861
-0.01397301598345628
-0.009429834160285467
-0.002360011957477797
-0.01064832566680484
-0.01045224738568325
-0.02450855201854773
-0.01589607566358128
-0.01235705887429118
-0.01335520605800052
-0.009711407462874308
-0.01328484634468547
-0.01094256193002509
-0.05863549991111608
-0.01311763338871917
-0.01213452235183786
-0.009015146535113358
-0.01525282486162038
-0.01415896011673084
-0.01571370162984334
-1.37403288834518
-0.09942347996495086
-0.01198176120412781
0.0228221902051508
-0.1636979301453333
-0.09382943215480105
-0.01176836208734668
-0.01419609391363824
-0.2483840840323905
-0.02946524761579274
-0.01903980536814621
-0.01171733333026088
-0.0202406857129964
-0.01109294945651888
-0.03074120458835393
-0.4117120421307638
-0.01203677054872638
-0.014081874295824
-0.004598231768489343
-0.0105004306128139
-0.009174688220298162
-0.01406003594504277
-0.009078837730270371
-0.02689558176337424
-0.01153372920508056
-0.165136030759542
0.01871844024959941
-0.007545696058784093
0.003313637050150914
0.0119629674763523
-0.04825181150508307
0.02872911442939122
-0.01273734399298855
-0.1345957258480586
0.282488864051454
-0.007926301218096846
-0.01330176938472763
-0.008138350369446471
-0.03335283396616689
-0.1241728873069036
-0.01340629893917693
-0.01213060272257124
-0.01746743777212906
-0.01357955285442218
-0.04133341578444403
-0.2171790397971831
-0.01015320293864251
-0.04248863697637064
-0.03896762937657636
-0.1737566185218732
-0.1556362305536859
-0.1548975847961419
-0.2491002244877218
-0.004187979013254338
-0.02093606516638401
-0.01531264046606497
-0.01360136832202047
-0.0333043070400197
-0.02443513177220413
-0.0141714478943362
-0.0149939424737041
-1.076128513832548
-0.003138670168147182
-0.01363148065912437
-0.01813853019390262
-0.01803807614555484
0.005682923255733332
-0.0139792707412411
-0.02652139350679726
-0.1624527317104711
-0.01355840092546141
-0.02131552880468504
-0.01445936140712638
0.002042768633570789
-0.177617800788875
-0.01298324716691977
-0.1529322699603601
-0.01568789982573149
0.00871479640754582
-0.01410120506417562
-0.02377052468316721
-0.01623046819824427
0.007031325513501009
-0.2704973163612818
-0.02622522232851263
-0.01665824691193358
-0.01392037913585767
-0.01038352565532249
-0.02985730028563791
-0.01397875697212836
-0.02087729509143898
-0.02085063885024602
0.008439682257000394
-0.0992139393610152
-0.02157401913297513
0.009476774389512782
-0.05469018136770058
0.1699785468897808
-0.1047333978618105
-0.3195329083828699
-0.02953713640772684
-0.02565944434629374
0.150022341832623
0.09568203389368291
-0.003555103201135159
0.05222192283188049
-0.01546326420937702
-0.01369963038321444
0.002525542750435325
0.00983370100447211
-0.06588105134345623
-0.004675576002003768
-0.05666242749546322
-0.02295684937899945
-0.0156807184390458
-0.03650637939101735
-0.03293226622064443
-0.006679292312722318
-0.01460207939646093
-0.03792124929495213
0.03256527557105495
-0.03870508932088321
-0.01366011426283932
-0.118055334056996
-0.03123946762247353
-0.03933982432270025
-0.6734275882398395
0.01430353106961377
-0.01098929047119826
-0.00540406716377159
0.1809497124005827
-0.09594612631502024
-0.03555762509274651
-0.2445009035888584
-0.01566545532440158
-0.01627242131163832
0.06960216311256182
-0.1830733341695335
-0.2268119799105453
-0.1901632417601336
-0.6814356005149224
0.01128840049433217
-0.01902977859466309
-0.01544734398114915
-0.09140234991491568
0.1182719860783133
-0.02180162885663677
-0.2482903691505684
-0.03573384606940482
-0.0067286404725339
0.2774651494874714
-0.01092951172087963
-0.09229251301848575
-0.1509162966962459
-0.004812247929436009
-0.04114263044522865
-0.04548758727183742
-0.1983511808304622
-0.008352080206318354
-0.04094211705136862
-0.003488039810406485
-0.5479019298236688
-0.1971387729311992
-0.1770144996846398
-0.02330740770802915
-0.008266104012831163
-0.06107459914987326
-0.05725458471038333
-0.01603496663684159
-0.06863321616447425
0.003862437934519206
-0.0178824506364506
-0.09565413511365738
-0.2726025352184312
-0.009386088107993162
-0.02528627749839419
-0.02160454893979073
-0.07538439142649275
-0.08998704675513068
-0.08881803050758685
-0.01114323356605319
-0.9160349647919568
0.1613638226412541
-0.08259112109599524
-0.2537848259817082
-0.04190577478446923
-0.009470812032661986
-0.2460184059978953
-0.1896257522341064
-0.03198389689302936
-0.1168951081584311
-0.01781240050897915
0.562472644326556
-0.02462241082778066
-0.2180462358048049
-0.02553995456946815
-0.004207754993437637
-0.01122529740562939
-1.251671403641032
-0.1830938828180533
-0.2302944280623053
0.005333227896463141
-0.03853427991138252
-0.2394707257770808
-0.06630975884419865
-0.05160658403157527
-0.1437470509845673
-0.1873812147867328
-0.06896358136893772
-1.222508926795817
-0.155480216053308
-0.5326399677304506
0.0788148863750663
-0.006701436177073587
-0.02142190090356538
-0.04368956265104994
-0.03932434727663139
-0.02809351149106163
-0.131148435080176
0.08068888458643343
-0.004455795065133939
-0.009758857264821336
-0.569012187929158
-0.8558541416839103
-0.1802243333646649
-0.007725622601722761
-0.1260972123040945
0.0006853328541816199
-0.0007701486122328488
-0.002589634493830406
-0.06131469582872629
-0.2360668791364917
-0.01340400534373333
-0.113742459319399
-0.1548301073922198
-0.01314606918102132
-0.03505511446883729
0.02570317250116367
-0.05812815706543032
-0.07096854396500103
-0.4970964867177571
-0.2410054962511787
-0.08053085521047867
-0.07404966176575564
-0.01954167968439201
-0.1129507992225992
-0.1623851057907931
-0.0806595237900945
0.02686137646091661
-0.08590818045853589
-0.04927330040823376
-0.01495309104085194
-0.114608756763573
-0.2774379249006237
-0.05817844252234854
-0.01823181829998339
0.001846563641925294
-0.01021549164676702
-0.01076434848011178
-0.2306585000386155
-0.01416119234480162
-0.2195696420258594
-0.01078779822673612
-0.06743902358605487
-0.003702261907788443
-0.02322141538538623
-0.3862092456339045
-0.9188748246845391
-0.01125584992982885
-1.046162149973719
-0.6066887928166288
-0.01073093500717115
-0.6552118927394598
-0.1818190645318605
-0.004962128564366194
-0.1258086504446468
-0.01719758875229482
-0.1234738696124894
-0.06606918299576305
-0.07623229800126581
-0.005590536265049146
-0.003484394162216284
-1.338236619271669
-0.01120584750574931
-0.190277388803186
0.0008318132320353324
-1.012005723550244
-1.239447308560732
-0.07990967485185239
0.01844972639703206
0.1645621121513128
-0.004961984794183389
-0.02296513824447262
-0.004351201860995825
-0.2434143606630674
0.3659396333670948
-0.04165473507192653
-0.2122806042234525
-0.01518448784584575
-0.6566328522118917
-0.07357050052074614
0.1904893279942185
-0.2965945379229466
-0.05040990120484531
-0.06964329841310853
-0.01578613360451296
-0.02150440170379294
-0.5856274089245678
-0.1501036147008425
-0.09235277029263803
-0.1206632921795855
-0.5543837226076831
-0.04490697158366342
-0.9071503326490803
-0.001045893392277677
-0.2410971758764418
-1.048251982579969
0.1693226100274299
0.2917705439240122
-0.1723820246935338
-0.1915833677869779
-0.2092933121043041
-0.0671345292892214
0.02487016600522948
0.04939657682315811
0.004916813898094164
-0.1554622918021861
0.02540139074860383
-1.358910862688974
-0.08625399451214386
-0.4756965532501339
-0.3313782442277786
-0.2139051856159027
-0.177994594175641
-0.01696297348961035
-0.0153803598071096
-0.0960925000832507
0.171404711448083
0.3854121457089572
-0.2176069704304391
-0.1521933147816503
-0.2327885524583948
-0.06309744312489921
-0.1596611635471928
-0.1688897056369262
-0.1265783299820208
-0.112154135828484
0.466790215665283
-0.2774663899827094
0.4306994191947525
-0.5941011603253384
0.07174263879458168
-0.1943746868346568
-0.06707515313477397
-0.07561925453255541
-0.8856355507216725
-0.2214651711149824
-0.1907185547930864
-0.3510989263982993
-0.4620639029161389
0.5702672674250524
-0.2077272225695987
0.001472029465899509
-0.06914354625090376
0.3437011519080469
-0.0361774198375362
-0.1198529586493338
-0.179849533590673
-0.06463601886446528
-0.0163798927690887
-0.1955196583542125
0.1931195789868052
-0.01259267287884844
-0.09756152188774292
-0.1723239127566884
-0.3143185957865471
-0.310743116793156
-0.07814713174133962
-0.009845272573447002
-0.07561264554034922
-0.6548565944745074
-0.6693343725558282
-0.3298180237775176
-0.05852583177627169
-0.05069401058572309
-0.02481926505231793
-0.06890318078797196
-0.05633609861541676
-0.3640329497556606
-0.9576218138950653
-0.009054605110113322
-0.08418712906790446
-1.139445925174754
-1.035932424258527
-0.1053244093662542
-0.03993528187853518
-0.06889234431848895
0.3905935170960761
-0.3423414812882793
-0.05231606043033093
-0.6008363592402617
-0.1334077158773658
-0.2508904772216299
-0.2113104430742764
0.4741251887574465
-0.6315983217177159
0.07385744697573701
-0.02890041771025325
-0.5637720142287368
-0.05287663449532231
-0.3619083535864661
0.1076271446625441
-0.1918304477441826
-0.06070786088881128
-0.1282398610956095
-0.3612840508390099
-0.08752683394961426
0.514166210515117
0.08615872049112629
0.4709495151984925
-0.1235699910395249
-0.2032515888814174
-0.514579195475534
-0.1316220879055687
0.02570969874149821
-0.05458085531082996
0.1020291086854976
-0.3077362184087372
0.236390897599465
0.007475431678085374
-0.002986347692706668
-0.5114582789129904
-0.1837226375567268
-0.09844229619457767
0.581218784020195
0.1390321139136454
0.3462959391685456
0.2255412643494542
-0.5624736661112016
-0.2146375685571151
-0.2183100343213817
-0.2341738916062528
-0.06132073023446014
-0.6919626610437559
-0.1930404497425038
0.305833953307414
-0.209226578073294
-0.01108780718528313
-0.166969976687993
-0.01058220460591936
-0.1659544401048469
-0.4413115831104142
-0.07698004955309451
-0.2015570317325193
-0.07429375227016534
-0.1063343673857925
-0.1356124392588634
-0.07325007295894261
-0.4459304832664624
-0.4138172693098115
-0.02583724296752692
-0.07585379763769569
0.326853672998549
-0.2495362334415112
-0.1760630504551864
0.5255898591705688
-0.198169159024833
0.01893067691152334
-0.4518795679922171
0.04647440760092609
-0.06078161650526135
-0.1577787393677828
-0.5869845021657547
0.1614981134987009
-0.5789185580800115
-0.536745092419498
-0.1046602635720112
-0.5088101178156824
-0.03663143229088275
-0.1517029763747903
-0.4108377851148589
-0.01621084204357603
0.286880692893951
0.489611176482479
-0.1636898974262994
-0.006930480001065683
-0.07448823291301954
0.5253345953393693
-0.0326763598298426
-0.4420848091695791
-0.03209243104891366
0.4605814857203215
-0.01599913333448267
-0.5463594470208297
-0.2396014750639317
0.1765272602664452
-0.3125627230624708
-0.1801323128854025
0.05097869198469006
0.03254641044276663
0.0553469446959621
-0.3016330515850644
-0.1574147242338431
0.4128692927359792
)
;

boundaryField
{
    FrontBack
    {
        type            empty;
    }
    Top
    {
        type            zeroGradient;
    }
    In
    {
        type            zeroGradient;
    }
    Bottom
    {
        type            zeroGradient;
    }
    Out
    {
        type            fixedValue;
        value           uniform 0;
    }
    circle
    {
        type            zeroGradient;
    }
}


// ************************************************************************* //
