/*--------------------------------*- C++ -*----------------------------------*\
| =========                 |                                                 |
| \\      /  F ield         | OpenFOAM: The Open Source CFD Toolbox           |
|  \\    /   O peration     | Version:  2412                                  |
|   \\  /    A nd           | Website:  www.openfoam.com                      |
|    \\/     M anipulation  |                                                 |
\*---------------------------------------------------------------------------*/
FoamFile
{
    version     2.0;
    format      ascii;
    arch        "LSB;label=32;scalar=64";
    class       volVectorField;
    location    "0.8";
    object      cellDisplacement;
}
// * * * * * * * * * * * * * * * * * * * * * * * * * * * * * * * * * * * * * //

dimensions      [0 1 0 0 0 0 0];

internalField   nonuniform List<vector> 
1024
(
(0.00220306 -0.00316315 0)
(0.0042348 -0.00576629 0)
(0.00640013 -0.00772163 0)
(0.00883654 -0.00897856 0)
(0.0115387 -0.00942001 0)
(0.014424 -0.00895633 0)
(0.0172267 -0.00751652 0)
(0.0196197 -0.0051778 0)
(0.0210415 -0.00215002 0)
(0.0211648 0.00109177 0)
(0.0198014 0.00392844 0)
(0.0173102 0.00584466 0)
(0.0139892 0.00652585 0)
(0.0103091 0.00597508 0)
(0.00663731 0.0044385 0)
(0.00311524 0.00225416 0)
(0.00982233 -0.0138228 0)
(0.0157762 -0.0205105 0)
(0.0221587 -0.0252028 0)
(0.0292382 -0.0278168 0)
(0.0369761 -0.0281236 0)
(0.0450262 -0.0259157 0)
(0.0526488 -0.0211149 0)
(0.0588995 -0.0140017 0)
(0.0624452 -0.00527779 0)
(0.0624895 0.00378357 0)
(0.058954 0.0117059 0)
(0.0523963 0.0172342 0)
(0.0436145 0.0196132 0)
(0.0338263 0.0188466 0)
(0.0237984 0.0153614 0)
(0.0139109 0.00983288 0)
(0.0203389 -0.0281192 0)
(0.0299016 -0.0375338 0)
(0.0402152 -0.0437185 0)
(0.0516362 -0.0466434 0)
(0.0639048 -0.045927 0)
(0.0763865 -0.0413272 0)
(0.087993 -0.0328858 0)
(0.0969855 -0.0210696 0)
(0.101826 -0.00715906 0)
(0.101573 0.00699178 0)
(0.096174 0.0193127 0)
(0.0863589 0.0280976 0)
(0.0734681 0.0324106 0)
(0.0589124 0.0321271 0)
(0.0438214 0.0277661 0)
(0.0286788 0.020094 0)
(0.0336152 -0.0455796 0)
(0.0465371 -0.0564388 0)
(0.0605416 -0.0629723 0)
(0.0759069 -0.0652053 0)
(0.0921619 -0.0626711 0)
(0.108383 -0.0551623 0)
(0.122985 -0.0428283 0)
(0.133921 -0.0264766 0)
(0.139452 -0.00783833 0)
(0.138586 0.0107689 0)
(0.131628 0.0269567 0)
(0.11933 0.0387588 0)
(0.10329 0.045113 0)
(0.085176 0.045882 0)
(0.0661996 0.0415243 0)
(0.0469013 0.0327995 0)
(0.0495708 -0.0657175 0)
(0.0656212 -0.0767946 0)
(0.083027 -0.0826049 0)
(0.101956 -0.0832379 0)
(0.121669 -0.0782112 0)
(0.14088 -0.0673406 0)
(0.157626 -0.0509601 0)
(0.169698 -0.0302601 0)
(0.175393 -0.00732857 0)
(0.173897 0.0152533 0)
(0.165508 0.0348619 0)
(0.151286 0.0494625 0)
(0.132989 0.0579977 0)
(0.112259 0.0602242 0)
(0.0904317 0.0565861 0)
(0.0680481 0.0477993 0)
(0.06811 -0.0879681 0)
(0.0870916 -0.0981339 0)
(0.107681 -0.102286 0)
(0.129695 -0.100474 0)
(0.152254 -0.0923322 0)
(0.173663 -0.0777215 0)
(0.191767 -0.0572481 0)
(0.204388 -0.0324057 0)
(0.209876 -0.00554459 0)
(0.207605 0.0205582 0)
(0.197991 0.0432562 0)
(0.182335 0.0605248 0)
(0.16238 0.0712847 0)
(0.139855 0.0753249 0)
(0.11606 0.0729934 0)
(0.0915193 0.0649794 0)
(0.0892249 -0.111767 0)
(0.110936 -0.11996 0)
(0.134344 -0.121534 0)
(0.159043 -0.116593 0)
(0.183769 -0.104779 0)
(0.206652 -0.0861654 0)
(0.225461 -0.0616009 0)
(0.238036 -0.0328456 0)
(0.242986 -0.00241322 0)
(0.23986 0.0268857 0)
(0.22918 0.0523818 0)
(0.212423 0.0721819 0)
(0.191376 0.0852775 0)
(0.167668 0.0913866 0)
(0.142625 0.0908447 0)
(0.116753 0.084347 0)
(0.112929 -0.136483 0)
(0.137148 -0.141737 0)
(0.16306 -0.139918 0)
(0.189869 -0.131181 0)
(0.216117 -0.115271 0)
(0.239782 -0.0924764 0)
(0.258627 -0.0638892 0)
(0.270758 -0.0314414 0)
(0.27489 0.00226836 0)
(0.270732 0.0344024 0)
(0.259142 0.0625064 0)
(0.241593 0.0847783 0)
(0.219798 0.100237 0)
(0.195407 0.108664 0)
(0.16969 0.110323 0)
(0.143103 0.105928 0)
(0.139349 -0.161462 0)
(0.165833 -0.162878 0)
(0.193784 -0.156909 0)
(0.222163 -0.143807 0)
(0.249261 -0.12346 0)
(0.273023 -0.0963809 0)
(0.291385 -0.0638631 0)
(0.302557 -0.0279801 0)
(0.30552 0.00866302 0)
(0.300335 0.0434212 0)
(0.287913 0.0739431 0)
(0.269738 0.0986004 0)
(0.247502 0.116527 0)
(0.222773 0.127468 0)
(0.196791 0.131678 0)
(0.169997 0.129951 0)
(0.168671 -0.185946 0)
(0.197096 -0.182678 0)
(0.22665 -0.171882 0)
(0.255943 -0.153922 0)
(0.283196 -0.128882 0)
(0.306397 -0.097486 0)
(0.323618 -0.0612192 0)
(0.333354 -0.0221768 0)
(0.33496 0.0171441 0)
(0.328644 0.0542409 0)
(0.315448 0.0870554 0)
(0.296789 0.114085 0)
(0.274269 0.134527 0)
(0.249403 0.148193 0)
(0.223423 0.155283 0)
(0.196707 0.156669 0)
(0.201252 -0.209057 0)
(0.231269 -0.200314 0)
(0.261819 -0.184056 0)
(0.291311 -0.160808 0)
(0.317913 -0.130892 0)
(0.339775 -0.0952596 0)
(0.355217 -0.0554726 0)
(0.363112 -0.0135864 0)
(0.363138 0.0280819 0)
(0.355659 0.0673587 0)
(0.341681 0.102329 0)
(0.322574 0.131701 0)
(0.299828 0.154776 0)
(0.274883 0.171341 0)
(0.248947 0.181605 0)
(0.222427 0.186496 0)
(0.237604 -0.22953 0)
(0.268681 -0.214541 0)
(0.299493 -0.192257 0)
(0.328267 -0.163431 0)
(0.353283 -0.128598 0)
(0.372978 -0.0889309 0)
(0.386035 -0.0459835 0)
(0.391703 -0.00162065 0)
(0.389889 0.0421258 0)
(0.381102 0.0832771 0)
(0.366269 0.120283 0)
(0.346696 0.151994 0)
(0.32371 0.177814 0)
(0.298613 0.197512 0)
(0.272559 0.211275 0)
(0.246034 0.22002 0)
(0.278387 -0.245573 0)
(0.309744 -0.223558 0)
(0.339771 -0.194801 0)
(0.366704 -0.160276 0)
(0.389076 -0.120751 0)
(0.405687 -0.0774327 0)
(0.415683 -0.0318114 0)
(0.41867 0.014501 0)
(0.41472 0.0598395 0)
(0.404414 0.102623 0)
(0.38862 0.141515 0)
(0.368411 0.175597 0)
(0.345001 0.204303 0)
(0.319531 0.227446 0)
(0.293075 0.245067 0)
(0.265999 0.258124 0)
(0.324344 -0.254453 0)
(0.354767 -0.224647 0)
(0.382508 -0.189187 0)
(0.406068 -0.149228 0)
(0.424481 -0.105662 0)
(0.437018 -0.0595104 0)
(0.443273 -0.0120033 0)
(0.443129 0.0356236 0)
(0.436785 0.0820932 0)
(0.424758 0.12616 0)
(0.407776 0.166776 0)
(0.386688 0.203234 0)
(0.362412 0.23507 0)
(0.335967 0.261988 0)
(0.308317 0.28395 0)
(0.279858 0.301703 0)
(0.375631 -0.251536 0)
(0.403001 -0.213694 0)
(0.426087 -0.172198 0)
(0.444279 -0.127927 0)
(0.457248 -0.0815309 0)
(0.464758 -0.0337852 0)
(0.466702 0.0144874 0)
(0.463115 0.0624299 0)
(0.454178 0.109204 0)
(0.440232 0.153993 0)
(0.42176 0.196097 0)
(0.399359 0.234922 0)
(0.373668 0.270024 0)
(0.345413 0.301065 0)
(0.315264 0.32797 0)
(0.283613 0.35107 0)
(0.425293 -0.228106 0)
(0.445604 -0.185322 0)
(0.461623 -0.140753 0)
(0.473196 -0.094828 0)
(0.480212 -0.0479901 0)
(0.482604 -0.000689962 0)
(0.480347 0.0466168 0)
(0.473465 0.0934746 0)
(0.462023 0.139432 0)
(0.446132 0.184047 0)
(0.425944 0.226889 0)
(0.401654 0.267547 0)
(0.373495 0.305627 0)
(0.34174 0.340764 0)
(0.306694 0.37262 0)
(0.268694 0.400887 0)
(0.00314631 0.00216066 0)
(0.00576097 0.00420598 0)
(0.00771294 0.00636882 0)
(0.00895907 0.00878588 0)
(0.00940686 0.0114984 0)
(0.00895029 0.0144027 0)
(0.00750961 0.0172218 0)
(0.00517248 0.0196552 0)
(0.0021397 0.0210927 0)
(-0.00110051 0.0212004 0)
(-0.00393554 0.0198417 0)
(-0.005839 0.0173145 0)
(-0.00651692 0.0139885 0)
(-0.00596609 0.0103077 0)
(-0.00444583 0.00664992 0)
(-0.00226959 0.00312905 0)
(0.0137946 0.00971962 0)
(0.0204642 0.0156581 0)
(0.0251657 0.0220388 0)
(0.0277926 0.0291236 0)
(0.0280924 0.0368631 0)
(0.0259021 0.0449679 0)
(0.0211019 0.0526505 0)
(0.0139812 0.0589413 0)
(0.00525404 0.0625027 0)
(-0.00380583 0.0625913 0)
(-0.0117033 0.0589909 0)
(-0.0172179 0.0524018 0)
(-0.0195805 0.0436048 0)
(-0.0188248 0.0338286 0)
(-0.0153582 0.0238099 0)
(-0.00984217 0.0139245 0)
(0.0280489 0.0201507 0)
(0.037478 0.0297185 0)
(0.043673 0.0400307 0)
(0.0465978 0.0514302 0)
(0.0458963 0.0637395 0)
(0.0413142 0.076299 0)
(0.0328688 0.0879737 0)
(0.0210419 0.097047 0)
(0.00712272 0.101926 0)
(-0.00701226 0.101666 0)
(-0.0193124 0.0962356 0)
(-0.028065 0.0863576 0)
(-0.0323568 0.0734456 0)
(-0.0320752 0.0588944 0)
(-0.0277403 0.0438286 0)
(-0.0200894 0.0286998 0)
(0.0455065 0.0333773 0)
(0.0563567 0.0462732 0)
(0.0629138 0.0602732 0)
(0.0651767 0.0756641 0)
(0.0626494 0.0919595 0)
(0.0551548 0.10827 0)
(0.0428119 0.122964 0)
(0.0264456 0.13395 0)
(0.00780538 0.139505 0)
(-0.010788 0.138672 0)
(-0.0269347 0.131649 0)
(-0.0387074 0.119309 0)
(-0.0450327 0.103248 0)
(-0.0458026 0.0851461 0)
(-0.0414609 0.0661888 0)
(-0.0327537 0.046903 0)
(0.0656145 0.0492558 0)
(0.0767198 0.0653031 0)
(0.0825591 0.0827144 0)
(0.083214 0.101646 0)
(0.0782102 0.12144 0)
(0.0673456 0.140747 0)
(0.0509499 0.157571 0)
(0.0302321 0.169715 0)
(0.00729377 0.175446 0)
(-0.015255 0.173932 0)
(-0.0348325 0.16552 0)
(-0.0493896 0.151244 0)
(-0.0578889 0.132925 0)
(-0.060102 0.112198 0)
(-0.0564752 0.0903956 0)
(-0.0477091 0.0680387 0)
(0.0878788 0.0677598 0)
(0.0980564 0.0867115 0)
(0.102249 0.1073 0)
(0.100484 0.129375 0)
(0.092355 0.152005 0)
(0.0777421 0.17351 0)
(0.0572469 0.191702 0)
(0.0323886 0.204363 0)
(0.00553298 0.209867 0)
(-0.0205502 0.207617 0)
(-0.0431963 0.197954 0)
(-0.0604258 0.182264 0)
(-0.0711437 0.162289 0)
(-0.0751635 0.139773 0)
(-0.0728306 0.116001 0)
(-0.0648294 0.0914819 0)
(0.111672 0.0888149 0)
(0.119909 0.110519 0)
(0.121529 0.133948 0)
(0.116626 0.158678 0)
(0.10483 0.183506 0)
(0.0862056 0.206485 0)
(0.0616202 0.225356 0)
(0.0328446 0.237986 0)
(0.00241101 0.242966 0)
(-0.0268444 0.239819 0)
(-0.0523086 0.229123 0)
(-0.0720585 0.212327 0)
(-0.0851053 0.191262 0)
(-0.0911776 0.167555 0)
(-0.0906234 0.142532 0)
(-0.0841429 0.116696 0)
(0.136418 0.112499 0)
(0.141707 0.136694 0)
(0.139942 0.162618 0)
(0.131251 0.189511 0)
(0.115349 0.215844 0)
(0.0925404 0.239596 0)
(0.0639244 0.258514 0)
(0.0314662 0.270674 0)
(-0.00222934 0.274815 0)
(-0.0343457 0.27067 0)
(-0.0623997 0.259048 0)
(-0.0846318 0.241474 0)
(-0.100035 0.219662 0)
(-0.108418 0.195273 0)
(-0.110059 0.169583 0)
(-0.105672 0.143022 0)
(0.161408 0.13888 0)
(0.162881 0.165356 0)
(0.15697 0.193352 0)
(0.143909 0.221788 0)
(0.123567 0.248986 0)
(0.0964663 0.272831 0)
(0.0639291 0.291238 0)
(0.028032 0.302448 0)
(-0.00860776 0.305435 0)
(-0.0433235 0.300237 0)
(-0.0738262 0.287807 0)
(-0.098437 0.269604 0)
(-0.116309 0.247355 0)
(-0.127202 0.222633 0)
(-0.131387 0.196669 0)
(-0.129668 0.169907 0)
(0.185924 0.168206 0)
(0.182714 0.19663 0)
(0.171975 0.226213 0)
(0.154053 0.25559 0)
(0.129014 0.282923 0)
(0.0975965 0.306193 0)
(0.0613007 0.323468 0)
(0.0222542 0.333231 0)
(-0.017044 0.334846 0)
(-0.0541359 0.328545 0)
(-0.0869176 0.315331 0)
(-0.113919 0.296651 0)
(-0.134308 0.274126 0)
(-0.147931 0.249263 0)
(-0.154996 0.223308 0)
(-0.156383 0.196612 0)
(0.209066 0.200811 0)
(0.200373 0.230841 0)
(0.18418 0.261434 0)
(0.160956 0.290986 0)
(0.131038 0.317656 0)
(0.0953779 0.33958 0)
(0.0555791 0.355056 0)
(0.013688 0.362977 0)
(-0.0279727 0.36303 0)
(-0.0672252 0.355554 0)
(-0.102199 0.341564 0)
(-0.131538 0.32245 0)
(-0.154582 0.29969 0)
(-0.171105 0.274761 0)
(-0.181351 0.248833 0)
(-0.186228 0.222335 0)
(0.22956 0.237243 0)
(0.214635 0.268326 0)
(0.192385 0.299173 0)
(0.16358 0.327995 0)
(0.128736 0.353063 0)
(0.0890528 0.372796 0)
(0.0460803 0.385887 0)
(0.00172576 0.391585 0)
(-0.042006 0.389787 0)
(-0.0831594 0.381007 0)
(-0.120155 0.366172 0)
(-0.151864 0.346577 0)
(-0.177653 0.323601 0)
(-0.197335 0.298493 0)
(-0.211065 0.272461 0)
(-0.219813 0.245927 0)
(0.245637 0.278118 0)
(0.223652 0.309486 0)
(0.194922 0.339537 0)
(0.1604 0.366502 0)
(0.120865 0.388905 0)
(0.0775198 0.405546 0)
(0.031896 0.415567 0)
(-0.0144156 0.418575 0)
(-0.0597457 0.414644 0)
(-0.102526 0.404344 0)
(-0.141425 0.388537 0)
(-0.175503 0.368325 0)
(-0.204204 0.344901 0)
(-0.227326 0.31944 0)
(-0.24494 0.292973 0)
(-0.257976 0.26591 0)
(0.254511 0.324186 0)
(0.224723 0.354616 0)
(0.189272 0.38237 0)
(0.149309 0.405947 0)
(0.105728 0.424377 0)
(0.0595669 0.436931 0)
(0.0120511 0.4432 0)
(-0.0355707 0.443073 0)
(-0.0820359 0.436739 0)
(-0.126104 0.424713 0)
(-0.166726 0.407725 0)
(-0.203187 0.386629 0)
(-0.235023 0.362346 0)
(-0.261935 0.335896 0)
(-0.283887 0.308245 0)
(-0.301632 0.279785 0)
(0.251564 0.375574 0)
(0.213729 0.402946 0)
(0.172234 0.426037 0)
(0.127959 0.444234 0)
(0.0815564 0.457209 0)
(0.0338045 0.464725 0)
(-0.0144695 0.466675 0)
(-0.0624104 0.463094 0)
(-0.109183 0.454161 0)
(-0.153973 0.440215 0)
(-0.196081 0.42174 0)
(-0.234908 0.399336 0)
(-0.270011 0.373642 0)
(-0.30105 0.345384 0)
(-0.32795 0.315234 0)
(-0.351048 0.283583 0)
(0.228106 0.425293 0)
(0.185322 0.445604 0)
(0.140753 0.461623 0)
(0.094828 0.473196 0)
(0.0479901 0.480212 0)
(0.000689962 0.482604 0)
(-0.0466168 0.480347 0)
(-0.0934746 0.473465 0)
(-0.139432 0.462023 0)
(-0.184047 0.446132 0)
(-0.226889 0.425944 0)
(-0.267547 0.401654 0)
(-0.305627 0.373495 0)
(-0.340764 0.34174 0)
(-0.37262 0.306694 0)
(-0.400887 0.268694 0)
(-0.00216729 0.0031512 0)
(-0.00420305 0.00576192 0)
(-0.00635393 0.00771044 0)
(-0.00878536 0.00897033 0)
(-0.0114901 0.0094155 0)
(-0.0143843 0.00895456 0)
(-0.0171985 0.00751589 0)
(-0.0196031 0.0051758 0)
(-0.0210317 0.00214692 0)
(-0.0211583 -0.00109524 0)
(-0.0197966 -0.0039309 0)
(-0.0173063 -0.00584462 0)
(-0.0139863 -0.00652438 0)
(-0.0103072 -0.00597309 0)
(-0.00663607 -0.00443903 0)
(-0.00311386 -0.00225857 0)
(-0.00972066 0.0138049 0)
(-0.0156307 0.0204649 0)
(-0.0220068 0.0251685 0)
(-0.0290857 0.027794 0)
(-0.0368393 0.0281131 0)
(-0.0449178 0.0259124 0)
(-0.0525736 0.0211126 0)
(-0.0588521 0.0139971 0)
(-0.0624165 0.00527 0)
(-0.0624717 -0.00379286 0)
(-0.0589405 -0.0117124 0)
(-0.0523849 -0.0172356 0)
(-0.043605 -0.0196094 0)
(-0.0338194 -0.0188426 0)
(-0.023794 -0.0153615 0)
(-0.0139071 -0.00984106 0)
(-0.020128 0.0280576 0)
(-0.0296614 0.0374766 0)
(-0.0399594 0.0436647 0)
(-0.0513884 0.0466096 0)
(-0.0636903 0.0459133 0)
(-0.076221 0.0413241 0)
(-0.0878785 0.032884 0)
(-0.0969135 0.0210628 0)
(-0.101782 0.00714742 0)
(-0.101545 -0.00700512 0)
(-0.0961536 -0.0193226 0)
(-0.086341 -0.0281002 0)
(-0.0734525 -0.0324074 0)
(-0.0589002 -0.0321222 0)
(-0.043813 -0.027765 0)
(-0.0286717 -0.0201035 0)
(-0.0333174 0.0455078 0)
(-0.0461774 0.0563485 0)
(-0.0601832 0.0629054 0)
(-0.0755753 0.0651663 0)
(-0.0918832 0.0626575 0)
(-0.108173 0.0551614 0)
(-0.122841 0.0428273 0)
(-0.13383 0.0264692 0)
(-0.139395 0.00782439 0)
(-0.138551 -0.0107851 0)
(-0.131601 -0.026969 0)
(-0.119307 -0.0387635 0)
(-0.103269 -0.0451106 0)
(-0.0851586 -0.0458772 0)
(-0.0661866 -0.0415223 0)
(-0.0468905 -0.0328073 0)
(-0.0491495 0.0656027 0)
(-0.0651708 0.0767022 0)
(-0.0825784 0.0825329 0)
(-0.101551 0.0831998 0)
(-0.121338 0.0782012 0)
(-0.140636 0.0673431 0)
(-0.157461 0.0509612 0)
(-0.169593 0.0302526 0)
(-0.175329 0.00731338 0)
(-0.173856 -0.0152714 0)
(-0.165478 -0.0348761 0)
(-0.151259 -0.0494689 0)
(-0.132964 -0.0579971 0)
(-0.112237 -0.0602199 0)
(-0.0904138 -0.0565832 0)
(-0.0680324 -0.0478055 0)
(-0.067604 0.0878504 0)
(-0.0865353 0.0980258 0)
(-0.107153 0.102218 0)
(-0.129234 0.100444 0)
(-0.151887 0.0923292 0)
(-0.173398 0.0777292 0)
(-0.19159 0.0572518 0)
(-0.204276 0.0323993 0)
(-0.209807 0.00552906 0)
(-0.207561 -0.0205768 0)
(-0.197958 -0.0432715 0)
(-0.182305 -0.0605326 0)
(-0.162351 -0.0712854 0)
(-0.139829 -0.0753212 0)
(-0.116037 -0.0729897 0)
(-0.0914986 -0.0649823 0)
(-0.0886071 0.111624 0)
(-0.110315 0.119866 0)
(-0.133757 0.121478 0)
(-0.158543 0.116575 0)
(-0.183383 0.104786 0)
(-0.206378 0.0861786 0)
(-0.225281 0.0616075 0)
(-0.237923 0.0328406 0)
(-0.242916 0.00239874 0)
(-0.239814 -0.0269041 0)
(-0.229145 -0.052397 0)
(-0.212392 -0.0721904 0)
(-0.191346 -0.0852792 0)
(-0.167639 -0.0913834 0)
(-0.142598 -0.0908401 0)
(-0.116727 -0.0843469 0)
(-0.112254 0.136355 0)
(-0.136456 0.141651 0)
(-0.162436 0.139883 0)
(-0.189355 0.131181 0)
(-0.21573 0.115289 0)
(-0.239514 0.0924955 0)
(-0.258454 0.0638987 0)
(-0.27065 0.0314382 0)
(-0.274822 -0.00228164 0)
(-0.270686 -0.034419 0)
(-0.259107 -0.0625208 0)
(-0.241561 -0.0847867 0)
(-0.219768 -0.10024 0)
(-0.195377 -0.108661 0)
(-0.169659 -0.110317 0)
(-0.143073 -0.105925 0)
(-0.138611 0.161336 0)
(-0.165118 0.162817 0)
(-0.19315 0.156897 0)
(-0.221659 0.143826 0)
(-0.248893 0.123488 0)
(-0.272774 0.0964046 0)
(-0.291225 0.0638744 0)
(-0.302458 0.0279786 0)
(-0.305456 -0.00867348 0)
(-0.300292 -0.0434356 0)
(-0.287879 -0.073955 0)
(-0.269707 -0.0986076 0)
(-0.247472 -0.116529 0)
(-0.222742 -0.127464 0)
(-0.196758 -0.131671 0)
(-0.169964 -0.129943 0)
(-0.167937 0.185846 0)
(-0.196392 0.182638 0)
(-0.226048 0.171894 0)
(-0.255478 0.153956 0)
(-0.282867 0.128917 0)
(-0.306179 0.0975118 0)
(-0.323479 0.0612317 0)
(-0.333268 0.022177 0)
(-0.334904 -0.0171524 0)
(-0.328604 -0.0542514 0)
(-0.315415 -0.0870644 0)
(-0.296759 -0.114089 0)
(-0.27424 -0.134527 0)
(-0.249372 -0.148188 0)
(-0.22339 -0.155273 0)
(-0.196673 -0.156658 0)
(-0.200569 0.208975 0)
(-0.23064 0.200299 0)
(-0.261295 0.184084 0)
(-0.290917 0.16085 0)
(-0.317639 0.130929 0)
(-0.339596 0.0952842 0)
(-0.355105 0.055484 0)
(-0.363041 0.0135874 0)
(-0.36309 -0.0280866 0)
(-0.355624 -0.0673657 0)
(-0.341652 -0.102334 0)
(-0.322547 -0.131702 0)
(-0.299801 -0.154772 0)
(-0.274854 -0.171332 0)
(-0.248917 -0.181591 0)
(-0.222394 -0.186479 0)
(-0.237042 0.229479 0)
(-0.268177 0.214545 0)
(-0.299086 0.19229 0)
(-0.327966 0.16347 0)
(-0.353077 0.12863 0)
(-0.372845 0.0889496 0)
(-0.385951 0.0459921 0)
(-0.39165 0.0016224 0)
(-0.389851 -0.0421282 0)
(-0.381073 -0.0832791 0)
(-0.366243 -0.120283 0)
(-0.346673 -0.15199 0)
(-0.323687 -0.177807 0)
(-0.298589 -0.197499 0)
(-0.272533 -0.211256 0)
(-0.246007 -0.219997 0)
(-0.27799 0.245549 0)
(-0.309398 0.22357 0)
(-0.339498 0.19483 0)
(-0.366506 0.160304 0)
(-0.388941 0.120771 0)
(-0.405599 0.077443 0)
(-0.415626 0.0318156 0)
(-0.418632 -0.0145 0)
(-0.414692 -0.0598389 0)
(-0.404392 -0.102622 0)
(-0.388601 -0.141511 0)
(-0.368393 -0.175591 0)
(-0.344984 -0.204292 0)
(-0.319513 -0.22743 0)
(-0.293057 -0.245045 0)
(-0.26598 -0.258098 0)
(-0.324123 0.254447 0)
(-0.354583 0.224659 0)
(-0.382367 0.189204 0)
(-0.405968 0.149241 0)
(-0.424413 0.105668 0)
(-0.436972 0.0595123 0)
(-0.443241 0.0120033 0)
(-0.443106 -0.0356233 0)
(-0.436768 -0.0820918 0)
(-0.424745 -0.126157 0)
(-0.407764 -0.166771 0)
(-0.386677 -0.203226 0)
(-0.362402 -0.235059 0)
(-0.335957 -0.261973 0)
(-0.308308 -0.283931 0)
(-0.279849 -0.301679 0)
(-0.375557 0.251537 0)
(-0.402944 0.213701 0)
(-0.426046 0.172204 0)
(-0.44425 0.12793 0)
(-0.457227 0.0815304 0)
(-0.464743 0.0337835 0)
(-0.46669 -0.0144888 0)
(-0.463105 -0.0624301 0)
(-0.454171 -0.109203 0)
(-0.440227 -0.153991 0)
(-0.421756 -0.196094 0)
(-0.399355 -0.234918 0)
(-0.373665 -0.270018 0)
(-0.345411 -0.301057 0)
(-0.315262 -0.327959 0)
(-0.283612 -0.351057 0)
(-0.425293 0.228106 0)
(-0.445604 0.185322 0)
(-0.461623 0.140753 0)
(-0.473196 0.094828 0)
(-0.480212 0.0479901 0)
(-0.482604 0.000689962 0)
(-0.480347 -0.0466168 0)
(-0.473465 -0.0934746 0)
(-0.462023 -0.139432 0)
(-0.446132 -0.184047 0)
(-0.425944 -0.226889 0)
(-0.401654 -0.267547 0)
(-0.373495 -0.305627 0)
(-0.34174 -0.340764 0)
(-0.306694 -0.37262 0)
(-0.268694 -0.400887 0)
(-0.0031444 -0.0021654 0)
(-0.00575785 -0.00421043 0)
(-0.00770962 -0.00637074 0)
(-0.00895563 -0.00878621 0)
(-0.00940209 -0.0115 0)
(-0.00894243 -0.0144083 0)
(-0.00749769 -0.0172326 0)
(-0.00515472 -0.0196726 0)
(-0.00211549 -0.0211175 0)
(0.00113212 -0.0212328 0)
(0.00397558 -0.019879 0)
(0.0058996 -0.0173868 0)
(0.00657874 -0.0140485 0)
(0.00602056 -0.0103483 0)
(0.00447587 -0.00665793 0)
(0.00229178 -0.00312924 0)
(-0.0137883 -0.00973102 0)
(-0.0204573 -0.015664 0)
(-0.0251563 -0.0220432 0)
(-0.0277809 -0.0291269 0)
(-0.0280782 -0.0368667 0)
(-0.0258787 -0.0449836 0)
(-0.0210661 -0.0526822 0)
(-0.0139285 -0.0589921 0)
(-0.00518277 -0.0625732 0)
(0.00389829 -0.062681 0)
(0.0118269 -0.0591151 0)
(0.0173687 -0.052547 0)
(0.0197553 -0.0437679 0)
(0.0189783 -0.0339333 0)
(0.015488 -0.0238733 0)
(0.00993876 -0.0139493 0)
(-0.0280394 -0.0201623 0)
(-0.0374662 -0.029726 0)
(-0.0436578 -0.0400356 0)
(-0.0465792 -0.0514332 0)
(-0.0458713 -0.0637486 0)
(-0.0412752 -0.0763265 0)
(-0.0328096 -0.088027 0)
(-0.0209563 -0.0971292 0)
(-0.00700769 -0.102037 0)
(0.00716136 -0.101807 0)
(0.0195005 -0.096409 0)
(0.0283095 -0.0865944 0)
(0.0326234 -0.0736738 0)
(0.0323347 -0.0590718 0)
(0.0279597 -0.0439294 0)
(0.0202671 -0.0287467 0)
(-0.0454926 -0.0333893 0)
(-0.0563403 -0.0462788 0)
(-0.0628926 -0.0602774 0)
(-0.0651501 -0.0756696 0)
(-0.0626138 -0.0919743 0)
(-0.0551007 -0.108309 0)
(-0.0427307 -0.123037 0)
(-0.0263299 -0.134059 0)
(-0.00765122 -0.13965 0)
(0.0109849 -0.138851 0)
(0.0271876 -0.13188 0)
(0.039009 -0.119571 0)
(0.0453789 -0.103525 0)
(0.0461457 -0.0853623 0)
(0.0417845 -0.0663433 0)
(0.0330316 -0.0469941 0)
(-0.0655964 -0.0492648 0)
(-0.0766978 -0.0653073 0)
(-0.0825319 -0.0827176 0)
(-0.0831801 -0.101653 0)
(-0.0781642 -0.121462 0)
(-0.067277 -0.140799 0)
(-0.050849 -0.157662 0)
(-0.0300903 -0.169847 0)
(-0.0071067 -0.175617 0)
(0.0154934 -0.174143 0)
(0.0351267 -0.16577 0)
(0.0497551 -0.15155 0)
(0.0582984 -0.133227 0)
(0.0605333 -0.11246 0)
(0.0568885 -0.0905845 0)
(0.0480796 -0.0681557 0)
(-0.0878555 -0.0677658 0)
(-0.0980293 -0.0867126 0)
(-0.102216 -0.107302 0)
(-0.100443 -0.129384 0)
(-0.0922994 -0.152034 0)
(-0.0776607 -0.173574 0)
(-0.0571289 -0.191808 0)
(-0.0322255 -0.204513 0)
(-0.00531948 -0.210056 0)
(0.0208192 -0.207845 0)
(0.043534 -0.198232 0)
(0.060824 -0.18257 0)
(0.0716084 -0.16261 0)
(0.0756589 -0.140051 0)
(0.0733343 -0.116222 0)
(0.0653043 -0.0916411 0)
(-0.111644 -0.0888165 0)
(-0.119877 -0.110517 0)
(-0.121491 -0.133948 0)
(-0.11658 -0.15869 0)
(-0.104766 -0.183541 0)
(-0.0861137 -0.206558 0)
(-0.0614892 -0.225473 0)
(-0.0326659 -0.238146 0)
(-0.00217941 -0.243165 0)
(0.0271367 -0.240058 0)
(0.0526626 -0.229396 0)
(0.0724946 -0.212646 0)
(0.0856068 -0.191583 0)
(0.091738 -0.167854 0)
(0.0912027 -0.142775 0)
(0.0846953 -0.116866 0)
(-0.136386 -0.112496 0)
(-0.141671 -0.136689 0)
(-0.139901 -0.162617 0)
(-0.131201 -0.189524 0)
(-0.11528 -0.215885 0)
(-0.0924414 -0.239676 0)
(-0.0637849 -0.258638 0)
(-0.0312786 -0.270839 0)
(0.00247117 -0.275017 0)
(0.0346461 -0.270906 0)
(0.0627745 -0.259325 0)
(0.0850714 -0.241774 0)
(0.100564 -0.21998 0)
(0.109013 -0.195567 0)
(0.11069 -0.169822 0)
(0.106306 -0.143216 0)
(-0.161373 -0.138872 0)
(-0.162842 -0.165347 0)
(-0.156928 -0.19335 0)
(-0.143856 -0.221803 0)
(-0.123495 -0.249031 0)
(-0.0963638 -0.272915 0)
(-0.0637868 -0.291364 0)
(-0.0278425 -0.302611 0)
(0.00884946 -0.305631 0)
(0.0436262 -0.300464 0)
(0.0741861 -0.288058 0)
(0.0988829 -0.269888 0)
(0.116835 -0.247652 0)
(0.127809 -0.222906 0)
(0.132047 -0.196906 0)
(0.13034 -0.170093 0)
(-0.185887 -0.168193 0)
(-0.182675 -0.196618 0)
(-0.171932 -0.22621 0)
(-0.154001 -0.255606 0)
(-0.128942 -0.282971 0)
(-0.0974947 -0.306279 0)
(-0.061161 -0.323591 0)
(-0.0220708 -0.333386 0)
(0.0172767 -0.335027 0)
(0.054421 -0.328747 0)
(0.0872731 -0.315558 0)
(0.114338 -0.296906 0)
(0.134816 -0.274382 0)
(0.148515 -0.249513 0)
(0.155642 -0.223514 0)
(0.157066 -0.196798 0)
(-0.209032 -0.200793 0)
(-0.200338 -0.230825 0)
(-0.184141 -0.26143 0)
(-0.160906 -0.291004 0)
(-0.130969 -0.317706 0)
(-0.0952807 -0.339664 0)
(-0.0554479 -0.355171 0)
(-0.0135183 -0.363117 0)
(0.0281857 -0.363189 0)
(0.0674915 -0.355729 0)
(0.102515 -0.34176 0)
(0.131925 -0.322657 0)
(0.155036 -0.299913 0)
(0.171632 -0.274959 0)
(0.181929 -0.249021 0)
(0.186858 -0.22249 0)
(-0.229533 -0.237219 0)
(-0.214607 -0.268308 0)
(-0.192352 -0.29917 0)
(-0.163536 -0.328016 0)
(-0.128673 -0.353112 0)
(-0.0889651 -0.372873 0)
(-0.0459641 -0.385988 0)
(-0.00157824 -0.391702 0)
(0.0421894 -0.389916 0)
(0.0833823 -0.381147 0)
(0.120427 -0.366322 0)
(0.152183 -0.346743 0)
(0.178026 -0.323762 0)
(0.197753 -0.298654 0)
(0.211536 -0.272603 0)
(0.220324 -0.246061 0)
(-0.245619 -0.278092 0)
(-0.223633 -0.309469 0)
(-0.194898 -0.339537 0)
(-0.160364 -0.366524 0)
(-0.120813 -0.388951 0)
(-0.0774478 -0.40561 0)
(-0.031803 -0.415646 0)
(0.0145306 -0.418662 0)
(0.0598852 -0.414736 0)
(0.102694 -0.404442 0)
(0.141623 -0.388642 0)
(0.175732 -0.368435 0)
(0.204464 -0.345013 0)
(0.227617 -0.319548 0)
(0.24526 -0.293077 0)
(0.258331 -0.266011 0)
(-0.254503 -0.324164 0)
(-0.224714 -0.354605 0)
(-0.189256 -0.382375 0)
(-0.149285 -0.405968 0)
(-0.105692 -0.424412 0)
(-0.059518 -0.436975 0)
(-0.0119896 -0.44325 0)
(0.0356445 -0.443124 0)
(0.0821227 -0.436792 0)
(0.126205 -0.424768 0)
(0.166841 -0.407782 0)
(0.203318 -0.386688 0)
(0.235168 -0.362408 0)
(0.262097 -0.335956 0)
(0.284061 -0.308311 0)
(0.301825 -0.279853 0)
(-0.251563 -0.375564 0)
(-0.213726 -0.402944 0)
(-0.172227 -0.426042 0)
(-0.127948 -0.444247 0)
(-0.0815399 -0.457226 0)
(-0.0337829 -0.464744 0)
(0.0144955 -0.466694 0)
(0.0624405 -0.463112 0)
(0.109217 -0.454179 0)
(0.154011 -0.440233 0)
(0.196124 -0.421758 0)
(0.234955 -0.399354 0)
(0.270063 -0.373661 0)
(0.301108 -0.345403 0)
(0.328006 -0.315269 0)
(0.351117 -0.283605 0)
(-0.228106 -0.425293 0)
(-0.185322 -0.445604 0)
(-0.140753 -0.461623 0)
(-0.094828 -0.473196 0)
(-0.0479901 -0.480212 0)
(-0.000689962 -0.482604 0)
(0.0466168 -0.480347 0)
(0.0934746 -0.473465 0)
(0.139432 -0.462023 0)
(0.184047 -0.446132 0)
(0.226889 -0.425944 0)
(0.267547 -0.401654 0)
(0.305627 -0.373495 0)
(0.340764 -0.34174 0)
(0.37262 -0.306694 0)
(0.400887 -0.268694 0)
)
;

boundaryField
{
    walls
    {
        type            cellMotion;
        value           uniform (0 0 0);
    }
    cylinder
    {
        type            cellMotion;
        value           nonuniform List<vector> 
64
(
(0.425293 -0.228106 0)
(0.445604 -0.185322 0)
(0.461623 -0.140753 0)
(0.473196 -0.094828 0)
(0.480212 -0.0479901 0)
(0.482604 -0.000689962 0)
(0.480347 0.0466168 0)
(0.473465 0.0934746 0)
(0.462023 0.139432 0)
(0.446132 0.184047 0)
(0.425944 0.226889 0)
(0.401654 0.267547 0)
(0.373495 0.305627 0)
(0.34174 0.340764 0)
(0.306694 0.37262 0)
(0.268694 0.400887 0)
(0.228106 0.425293 0)
(0.185322 0.445604 0)
(0.140753 0.461623 0)
(0.094828 0.473196 0)
(0.0479901 0.480212 0)
(0.000689962 0.482604 0)
(-0.0466168 0.480347 0)
(-0.0934746 0.473465 0)
(-0.139432 0.462023 0)
(-0.184047 0.446132 0)
(-0.226889 0.425944 0)
(-0.267547 0.401654 0)
(-0.305627 0.373495 0)
(-0.340764 0.34174 0)
(-0.37262 0.306694 0)
(-0.400887 0.268694 0)
(-0.425293 0.228106 0)
(-0.445604 0.185322 0)
(-0.461623 0.140753 0)
(-0.473196 0.094828 0)
(-0.480212 0.0479901 0)
(-0.482604 0.000689962 0)
(-0.480347 -0.0466168 0)
(-0.473465 -0.0934746 0)
(-0.462023 -0.139432 0)
(-0.446132 -0.184047 0)
(-0.425944 -0.226889 0)
(-0.401654 -0.267547 0)
(-0.373495 -0.305627 0)
(-0.34174 -0.340764 0)
(-0.306694 -0.37262 0)
(-0.268694 -0.400887 0)
(-0.228106 -0.425293 0)
(-0.185322 -0.445604 0)
(-0.140753 -0.461623 0)
(-0.094828 -0.473196 0)
(-0.0479901 -0.480212 0)
(-0.000689962 -0.482604 0)
(0.0466168 -0.480347 0)
(0.0934746 -0.473465 0)
(0.139432 -0.462023 0)
(0.184047 -0.446132 0)
(0.226889 -0.425944 0)
(0.267547 -0.401654 0)
(0.305627 -0.373495 0)
(0.340764 -0.34174 0)
(0.37262 -0.306694 0)
(0.400887 -0.268694 0)
)
;
    }
    outlet
    {
        type            cellMotion;
        value           uniform (0 0 0);
    }
    inlet
    {
        type            cellMotion;
        value           uniform (0 0 0);
    }
    frontAndBack
    {
        type            empty;
    }
}


// ************************************************************************* //
