/*--------------------------------*- C++ -*----------------------------------*\
| =========                 |                                                 |
| \\      /  F ield         | OpenFOAM: The Open Source CFD Toolbox           |
|  \\    /   O peration     | Version:  2412                                  |
|   \\  /    A nd           | Website:  www.openfoam.com                      |
|    \\/     M anipulation  |                                                 |
\*---------------------------------------------------------------------------*/
FoamFile
{
    version     2.0;
    format      ascii;
    arch        "LSB;label=32;scalar=64";
    class       surfaceScalarField;
    location    "0.8";
    object      meshPhi;
}
// * * * * * * * * * * * * * * * * * * * * * * * * * * * * * * * * * * * * * //

dimensions      [0 3 -1 0 0 0 0];

internalField   nonuniform List<scalar> 
1984
(
0.0009803
-0.00182248
-0.00107032
0.000944109
-0.00230374
0.00100774
-0.00302861
0.00104789
-0.00361991
0.00108736
-0.00394533
0.00115279
-0.00398355
0.00122848
-0.00365952
0.00131774
-0.00298719
0.00139622
-0.0020841
0.00144656
-0.00100245
0.00150447
0.00012899
0.00147211
0.00105149
0.00131264
0.00159653
0.0010815
0.00176153
0.000772382
0.00169417
0.00165242
0.000634852
0.00297153
-0.00393874
-0.00318226
0.00298373
-0.00490667
0.00314435
-0.00621538
0.00322991
-0.00709593
0.00333419
-0.00748788
0.00353065
-0.00741251
0.00375371
-0.00672407
0.00398761
-0.00542578
0.00423315
-0.00369473
0.00438776
-0.00168373
0.00447057
0.000302071
0.00435896
0.00190137
0.00396157
0.00292167
0.00336639
0.00333165
0.00251755
0.00329584
0.00316407
0.00210149
0.0050142
-0.00619698
-0.00533004
0.00517104
-0.00739006
0.00547134
-0.00913705
0.00560115
-0.0103516
0.00571042
-0.0107223
0.00603089
-0.0103964
0.00637062
-0.00931059
0.00670549
-0.00737777
0.00705927
-0.00491658
0.00728241
-0.00220221
0.00735802
0.000442373
0.00718617
0.00259493
0.00667782
0.00400581
0.00586266
0.00465421
0.00462282
0.00468417
0.00445536
0.00395561
0.00715691
-0.00855801
-0.00761086
0.00733409
-0.00971694
0.00777893
-0.0114518
0.00809834
-0.0128486
0.00824761
-0.0133443
0.00865212
-0.0127968
0.00905682
-0.0112713
0.00949144
-0.00882069
0.00974474
-0.005813
0.00992858
-0.00251871
0.0101665
0.000638019
0.00999512
0.00317681
0.00945538
0.00488151
0.00853135
0.00574175
0.00704674
0.00586115
0.00556115
0.006198
0.00958234
-0.0110596
-0.0101613
0.00973521
-0.0122294
0.0101149
-0.0137664
0.0106283
-0.0149002
0.0109838
-0.0153919
0.0114088
-0.0147373
0.0117828
-0.0127832
0.0122366
-0.00982353
0.0123725
-0.00638272
0.0125206
-0.00270337
0.0129167
0.000818571
0.0127996
0.0036284
0.0122961
0.00553956
0.0113698
0.00658133
0.00978156
0.00679632
0.00646447
0.00885207
0.0123958
-0.0134651
-0.0130417
0.0126813
-0.0147392
0.0129139
-0.0162053
0.0134013
-0.0169601
0.0139027
-0.0170699
0.0142748
-0.0160963
0.0145352
-0.0137645
0.0147977
-0.010409
0.0149754
-0.0065856
0.0152729
-0.00264589
0.0156517
0.00100944
0.0156071
0.00393061
0.015211
0.00598387
0.0143767
0.00716826
0.0127981
0.0074624
0.00712687
0.0119149
0.0155769
-0.0156133
-0.0162416
0.0160322
-0.0168636
0.0162806
-0.0182248
0.0166327
-0.018742
0.0170096
-0.0184097
0.0172395
-0.0170071
0.0173545
-0.0143761
0.0173724
-0.0107336
0.017586
-0.00659843
0.0180431
-0.00249337
0.0183772
0.00116746
0.0184389
0.00410393
0.0182061
0.00622315
0.0174979
0.0074567
0.0160225
0.00777304
0.0074542
0.0153227
0.0191565
-0.0174995
-0.0198311
0.0196777
-0.0186204
0.0199551
-0.0196887
0.0201481
-0.0198648
0.0202651
-0.0191392
0.0202763
-0.0173851
0.0202381
-0.0145109
0.0201672
-0.0107351
0.0203246
-0.00651155
0.0207377
-0.0023572
0.0210982
0.00125331
0.0212931
0.00410571
0.0212301
0.00617467
0.0206815
0.00739859
0.0194153
0.00774086
0.00747638
0.0190544
0.0232275
-0.0190363
-0.0239752
0.0236423
-0.0199037
0.0238018
-0.0205226
0.0237844
-0.0203007
0.0236151
-0.019203
0.0233716
-0.0171761
0.023155
-0.0141934
0.0230125
-0.0104105
0.0230771
-0.00622708
0.0233922
-0.00217555
0.0237988
0.00125802
0.0241268
0.00392582
0.0242553
0.0058821
0.0239607
0.00705717
0.0230569
0.00741953
0.0072305
0.0231547
0.0278111
-0.0200064
-0.0287873
0.0279366
-0.0205726
0.0278475
-0.0206876
0.0275425
-0.0200388
0.0270583
-0.0186462
0.0265227
-0.0164713
0.0260577
-0.0134866
0.0257685
-0.00981873
0.0257437
-0.00583194
0.0260269
-0.00203968
0.0265026
0.00114889
0.0270038
0.00361417
0.0273767
0.00539812
0.0274537
0.00649719
0.0271008
0.00690957
0.00680682
0.027763
0.0329236
-0.0202047
-0.0342399
0.0325698
-0.0204641
0.032047
-0.0200382
0.031338
-0.0189725
0.0304934
-0.017331
0.0296436
-0.0150935
0.0289105
-0.012245
0.02845
-0.00886856
0.0283674
-0.00525085
0.0286975
-0.00184233
0.0293242
0.000988354
0.0300616
0.00317647
0.0307762
0.0047743
0.0313659
0.00579788
0.0317384
0.00624677
0.00618575
0.0330844
0.0384198
-0.0191446
-0.0401568
0.0374093
-0.0191143
0.0362802
-0.0182008
0.0350626
-0.0167754
0.0338269
-0.0149793
0.0326752
-0.012823
0.031715
-0.0102794
0.0311007
-0.00736886
0.0310108
-0.0043185
0.031458
-0.00149001
0.0323172
0.000863357
0.0334077
0.00269636
0.0346215
0.00406193
0.0358573
0.00497165
0.037048
0.00540253
0.00538406
0.0391214
0.0440627
-0.0163823
-0.0463442
0.0422896
-0.0160983
0.0404205
-0.0148369
0.0386168
-0.0132313
0.0369611
-0.0114947
0.0355213
-0.00961137
0.034406
-0.00754406
0.0337406
-0.00530772
0.0336876
-0.0029938
0.0343071
-0.000832713
0.0354676
0.000970743
0.03702
0.00239188
0.0388462
0.00347264
0.0408455
0.00420855
0.0429041
0.00457308
0.00458395
0.0456859
0.0497922
-0.0116668
-0.0527613
0.0470795
-0.0112202
0.0443449
-0.00991153
0.0418683
-0.00848184
0.0397485
-0.00707217
0.0380399
-0.005669
0.0368288
-0.00422925
0.0362083
-0.00273632
0.0362902
-0.00122518
0.0371487
0.000186324
0.0386645
0.00138504
0.040709
0.00235127
0.0431729
0.00310209
0.0459753
0.00363596
0.0489744
0.00392972
0.0039797
0.0524842
0.0548917
-0.00482249
-0.058745
0.0510135
-0.00438704
0.0473984
-0.00363038
0.0442784
-0.00287027
0.0417432
-0.00214271
0.0398329
-0.00143473
0.0386038
-0.000730256
0.0381205
-2.62312e-05
0.0384383
0.000660835
0.0395707
0.00129963
0.0414481
0.0018659
0.0439695
0.00234945
0.0470449
0.00274812
0.050598
0.00306219
0.0544901
0.00328149
0.00340385
0.0586459
0.0518297
-0.056645
0.0473243
0.0434408
0.0402744
0.0378677
0.036244
0.035415
0.0353824
0.0361245
0.0375942
0.0397225
0.0424218
0.0455913
0.0491202
0.0528624
0.0566196
0.000696035
-0.00174384
0.000835102
-0.00252931
0.000954187
-0.00340613
0.00100648
-0.00390214
0.00112881
-0.0040748
0.00130592
-0.00402005
0.00148372
-0.00353584
0.00167737
-0.00259848
0.00187514
-0.00138126
0.00195942
-5.3758e-05
0.00187587
0.00116722
0.00171229
0.00209812
0.0015135
0.00267307
0.00132483
0.00297566
0.00104631
0.00295334
0.00264908
0.000857039
0.00225651
-0.00407802
0.00271621
-0.0054576
0.00302899
-0.00698315
0.0031235
-0.00769721
0.00342903
-0.00778502
0.00391194
-0.0074912
0.004402
-0.00648973
0.00491537
-0.00471099
0.0054739
-0.00248688
0.00570119
-0.000143278
0.00543966
0.00200074
0.0050088
0.00366806
0.00450682
0.00475104
0.00400308
0.00531558
0.00320229
0.00524864
0.00471715
0.00266509
0.00413544
-0.00675014
0.00483964
-0.00838826
0.00534475
-0.0102921
0.0054882
-0.0113099
0.00582323
-0.0112859
0.00650134
-0.0105657
0.00720235
-0.00899895
0.00791506
-0.00645842
0.00866983
-0.00342013
0.00898284
-0.000331472
0.00865942
0.00251143
0.00809584
0.00478401
0.00744895
0.00627935
0.00672494
0.00702313
0.00549857
0.00691017
0.0062243
0.00467789
0.0062919
-0.00957916
0.0070041
-0.0111432
0.00767392
-0.0130095
0.00802224
-0.0142202
0.00836183
-0.0142431
0.00910545
-0.0131231
0.00989046
-0.0109384
0.0107287
-0.00775396
0.011395
-0.00413281
0.0116821
-0.000492577
0.011561
0.0028705
0.0110024
0.00555667
0.0103105
0.00731906
0.00944081
0.00816715
0.00791632
0.00802084
0.00724947
0.00690514
0.008816
-0.0125197
0.00943305
-0.0140861
0.0100203
-0.0156931
0.0105727
-0.0166476
0.0110622
-0.0166357
0.0117585
-0.0152541
0.0124866
-0.0124832
0.0133295
-0.00873365
0.0138491
-0.00468203
0.0141095
-0.000660378
0.0142173
0.00305884
0.0137531
0.00600257
0.0130853
0.00792282
0.012159
0.00883733
0.0104843
0.00869719
0.00792819
0.00940657
0.011753
-0.0153266
0.0123923
-0.0169453
0.0127948
-0.0184676
0.0133182
-0.0190685
0.0138924
-0.018629
0.0144599
-0.0168257
0.0150217
-0.0135922
0.015638
-0.00939825
0.0161583
-0.00497988
0.0165657
-0.00073734
0.0167194
0.00311165
0.016376
0.00615613
0.0158027
0.0081542
0.0149026
0.0090987
0.0132108
0.00898561
0.00829511
0.0122153
0.0150454
-0.017791
0.0157495
-0.0193948
0.0160928
-0.0207779
0.0164498
-0.0211058
0.0168549
-0.0202117
0.017213
-0.0179525
0.0175687
-0.0143856
0.0179031
-0.00992882
0.0184134
-0.00524626
0.0189619
-0.000836616
0.0191207
0.00303586
0.0189192
0.00608041
0.0184758
0.00808051
0.0176418
0.00900794
0.0160714
0.00895148
0.00841449
0.0153215
0.0186675
-0.0197852
0.0193296
-0.0212643
0.019644
-0.0223863
0.0198145
-0.0224071
0.0199272
-0.0211296
0.0200194
-0.0185377
0.0201673
-0.0147769
0.0203641
-0.0102398
0.0207715
-0.00550763
0.0212559
-0.0010506
0.0214682
0.0028057
0.0214139
0.00578182
0.0211171
0.00773113
0.0204398
0.00868098
0.0191483
0.00875517
0.00842974
0.0188112
0.022612
-0.0211779
0.0231283
-0.0224722
0.0233109
-0.0232217
0.0232601
-0.0228918
0.023077
-0.021313
0.0228865
-0.018524
0.0228115
-0.0147188
0.0228924
-0.0102547
0.0231613
-0.00562526
0.0235252
-0.00124755
0.0237921
0.00249509
0.0238892
0.00533611
0.0238153
0.00723568
0.0234433
0.00824174
0.0226093
0.00848562
0.0083804
0.0228
0.0269676
-0.0219299
0.0271906
-0.0229157
0.0271275
-0.0232246
0.026799
-0.0225395
0.0263022
-0.0207315
0.0258212
-0.01789
0.0254866
-0.0142136
0.0253912
-0.0100076
0.0255319
-0.00564793
0.0258301
-0.00149409
0.0261681
0.00207712
0.0264781
0.00479994
0.0267165
0.00665357
0.0268023
0.00773498
0.0266002
0.00816599
0.00824622
0.027382
0.0318704
-0.0218963
0.0316071
-0.0225097
0.0311258
-0.0222866
0.0303861
-0.0211768
0.0295297
-0.0191687
0.0287442
-0.0163768
0.0281573
-0.0129933
0.0278929
-0.00924084
0.0279437
-0.00534329
0.0282459
-0.0015834
0.0287367
0.00168045
0.0293362
0.00421561
0.0299945
0.00601026
0.0306633
0.00715149
0.0312009
0.00772805
0.00792681
0.0326603
0.0373632
-0.0206371
0.0363843
-0.0208352
0.0352466
-0.0200097
0.0339763
-0.0184841
0.0327159
-0.0163503
0.0316319
-0.0137289
0.0308651
-0.0108079
0.0304716
-0.00769763
0.0304766
-0.00447054
0.0308675
-0.00132972
0.0315882
0.00143893
0.0325804
0.00365721
0.0337861
0.00530241
0.035107
0.00642037
0.0364334
0.00704951
0.0072904
0.0386295
0.043269
-0.0175785
0.0413869
-0.0173647
0.0394368
-0.0160764
0.0375523
-0.0143236
0.035849
-0.0122868
0.0344945
-0.0100673
0.0335963
-0.00778074
0.0331446
-0.00544975
0.0331707
-0.00304093
0.0337132
-0.000655466
0.0347458
0.00148213
0.0362157
0.00323836
0.038038
0.00459744
0.0400903
0.00555818
0.0422465
0.00611843
0.00631917
0.0451626
0.0493308
-0.0123678
0.0464485
-0.0119033
0.0436
-0.0105363
0.0410294
-0.00898177
0.0388738
-0.00738937
0.0372469
-0.00580739
0.0362157
-0.00426026
0.0357669
-0.00273675
0.0359038
-0.00118576
0.0366914
0.000348103
0.0381158
0.00173501
0.0400929
0.00290322
0.0425403
0.00383823
0.045365
0.00452578
0.0484285
0.00494201
0.00508777
0.0520588
0.0546753
-0.00501722
0.0506888
-0.00456673
0.0469992
-0.00378669
0.0438276
-0.00298706
0.041283
-0.00220626
0.0394238
-0.00144856
0.0382965
-0.000718708
0.0379026
-9.23015e-06
0.0382438
0.00068812
0.0393453
0.00135936
0.0411785
0.00197771
0.0436684
0.00251973
0.0467326
0.00297429
0.0502984
0.00333551
0.054233
0.00358929
0.00372978
0.0584677
0.0517808
0.0472533
0.0433542
0.0401781
0.0377698
0.0361586
0.0353521
0.0353372
0.0360843
0.0375485
0.0396693
0.0423641
0.0455338
0.0490693
0.0528257
0.0566027
0.000852215
-0.00193688
0.000965907
-0.00244684
0.00109393
-0.00322765
0.0011229
-0.00388683
0.0011148
-0.0042159
0.00113664
-0.00421206
0.0011951
-0.00386226
0.00129801
-0.0031856
0.00141227
-0.00226817
0.00148179
-0.00113985
0.00153277
9.61959e-05
0.00149186
0.0011634
0.00133773
0.00186815
0.00112959
0.00220027
0.0008363
0.00221969
0.00215686
0.000702933
0.0026522
-0.00427583
0.00303039
-0.00526355
0.00334328
-0.00657842
0.00339313
-0.00748348
0.0033863
-0.0078888
0.00348181
-0.00780537
0.00366351
-0.00710675
0.00393108
-0.0057914
0.00426007
-0.00401367
0.00446538
-0.00190515
0.00454265
0.000263429
0.0044172
0.00211243
0.00403837
0.00340888
0.0035019
0.00408687
0.00269587
0.00420272
0.00410022
0.00229512
0.00464236
-0.00683283
0.005211
-0.00803678
0.00567571
-0.00963473
0.00574801
-0.0107767
0.00573273
-0.0111673
0.0059435
-0.0108954
0.00623795
-0.00984032
0.00661162
-0.007885
0.00705932
-0.00533988
0.00735499
-0.0024787
0.00744985
0.000409403
0.00728085
0.00288944
0.00681066
0.00465517
0.00607593
0.00562748
0.00489744
0.00585608
0.00572839
0.00425851
0.00679315
-0.00944356
0.00733843
-0.0105894
0.00790846
-0.0120513
0.0081613
-0.0132721
0.00820253
-0.0137823
0.00851652
-0.013343
0.00888485
-0.0118959
0.00935449
-0.00943043
0.00969407
-0.00631133
0.00996456
-0.00282684
0.0102558
0.000618571
0.0101193
0.00353241
0.00964245
0.00563635
0.00881329
0.00685084
0.0074012
0.00720843
0.00708575
0.00659274
0.00921236
-0.0121206
0.0096657
-0.0132751
0.0101168
-0.0144262
0.0105677
-0.015301
0.0108492
-0.0157967
0.0112167
-0.0152887
0.0115707
-0.0134553
0.0120525
-0.010496
0.0122594
-0.00692751
0.0125012
-0.00302851
0.0129844
0.000808904
0.0129419
0.00401768
0.0125297
0.00634743
0.0117105
0.00775752
0.0102013
0.00824123
0.00814993
0.00932254
0.0119703
-0.0145984
0.0124955
-0.0158299
0.0127589
-0.0168691
0.013199
-0.0173219
0.0136672
-0.0174194
0.0140213
-0.0166103
0.0142819
-0.0144293
0.0145658
-0.0110909
0.0147991
-0.00713817
0.0151923
-0.00296678
0.0156856
0.00101122
0.0157546
0.00432977
0.015479
0.00679758
0.0147634
0.0083513
0.0132681
0.00893671
0.00889093
0.0124452
0.0150482
-0.0167302
0.01571
-0.0179291
0.0159621
-0.0188458
0.0162851
-0.0190413
0.0166698
-0.018681
0.0169242
-0.0174467
0.0170619
-0.0149839
0.017098
-0.0113754
0.0173549
-0.0071215
0.0179056
-0.00279108
0.0183723
0.00118041
0.0185798
0.00449274
0.0184926
0.00700593
0.0179136
0.00860189
0.0165255
0.009222
0.00921872
0.0158955
0.0184859
-0.0184304
0.019169
-0.0194835
0.0194648
-0.0201656
0.019659
-0.0200661
0.0198256
-0.0193148
0.0199039
-0.0177242
0.0199119
-0.015023
0.0198605
-0.0112925
0.0200523
-0.00696616
0.0205547
-0.00260597
0.0210577
0.00128524
0.0214188
0.00447628
0.0215173
0.00690731
0.021104
0.00847422
0.0199314
0.00911573
0.00916951
0.0196526
0.0223201
-0.0195865
0.0228798
-0.0204184
0.0231062
-0.0207708
0.0231485
-0.0203598
0.0230808
-0.0192661
0.0229486
-0.0173964
0.022803
-0.0145782
0.0226867
-0.0108457
0.0227816
-0.00657985
0.0231811
-0.00234958
0.0237317
0.00132779
0.0242306
0.00428749
0.024523
0.00656125
0.0243649
0.00804395
0.0235666
0.00868118
0.00879099
0.0237643
0.0266165
-0.0200848
0.0268881
-0.0206499
0.0269207
-0.0206458
0.0267473
-0.0199333
0.0264255
-0.0185914
0.0260479
-0.0165695
0.0256842
-0.0137361
0.0254365
-0.0101226
0.0254451
-0.00606999
0.0258084
-0.00212369
0.0264198
0.00127221
0.0270815
0.00398031
0.0276075
0.00602695
0.0278195
0.00738308
0.0275911
0.00802691
0.00818173
0.028378
0.0314816
-0.0198111
0.0312713
-0.0201185
0.0309138
-0.0197207
0.030389
-0.018702
0.0297568
-0.017161
0.0291072
-0.0150747
0.0285125
-0.0123626
0.0281237
-0.00904147
0.0280882
-0.00537545
0.0284937
-0.00183772
0.0292391
0.00116336
0.0301142
0.00354499
0.0309641
0.00534757
0.0316864
0.00656751
0.0322061
0.00719498
0.0073372
0.0337035
0.0369367
-0.0184722
0.0360232
-0.0185219
0.0350408
-0.0177086
0.0340137
-0.0163891
0.0330061
-0.0147159
0.032078
-0.0126954
0.0312944
-0.0102696
0.0307907
-0.00741769
0.030769
-0.00434154
0.031288
-0.00141835
0.0322437
0.00106439
0.0334444
0.00304001
0.0347742
0.00455198
0.0361385
0.005602
0.0374882
0.00615968
0.0062895
0.0397264
0.0428412
-0.0157054
0.0410581
-0.0155028
0.0392629
-0.0143491
0.0376
-0.0128447
0.0361369
-0.0112036
0.0349109
-0.00941702
0.0339876
-0.00743963
0.033459
-0.00525923
0.0334907
-0.0029435
0.034178
-0.0007288
0.0354124
0.0011551
0.0370496
0.0026659
0.0389709
0.00383825
0.0410838
0.00466426
0.0432876
0.00511121
0.00521313
0.0462275
0.0490154
-0.0112338
0.046228
-0.0108408
0.0434942
-0.0096011
0.0410791
-0.00822678
0.0390775
-0.00686183
0.0375287
-0.00550459
0.0364787
-0.00411424
0.0359836
-0.00265873
0.0361445
-0.00115658
0.0370582
0.000274409
0.0386263
0.00150829
0.0407291
0.00251588
0.0432615
0.00331017
0.0461456
0.00388694
0.0492507
0.00422161
0.0043086
0.0528875
0.0545666
-0.00469927
0.050627
-0.00427955
0.046984
-0.00354195
0.04387
-0.002795
0.0413801
-0.0020765
0.0395479
-0.00137821
0.0384071
-0.000686154
0.0379954
6.6643e-06
0.0383598
0.00068952
0.0395234
0.0013317
0.0414291
0.00190574
0.0439803
0.00239889
0.0470917
0.0028077
0.050687
0.00313149
0.054635
0.00335965
0.0034876
0.0588623
0.051776
0.0472532
0.0433579
0.0401881
0.0377879
0.0361797
0.0353701
0.0353536
0.0361065
0.0375839
0.039719
0.0424256
0.0456036
0.0491426
0.0528977
0.0566708
0.000774018
-0.00158469
0.000911526
-0.00225272
0.00101941
-0.0030011
0.0010653
-0.00340252
0.00119039
-0.00350359
0.0013728
-0.00339063
0.0015439
-0.00289041
0.00172388
-0.00198978
0.00191067
-0.000841378
0.00201748
0.000443087
0.00204325
0.00173815
0.00201162
0.00284131
0.00177406
0.0034396
0.00142631
0.00350602
0.0011373
0.00345763
0.00357191
0.00246429
-0.00373696
0.00292478
-0.00492966
0.00321751
-0.00626413
0.00329738
-0.00682067
0.00361076
-0.00678846
0.00410559
-0.00641627
0.00457669
-0.00541149
0.00505314
-0.00370191
0.00558504
-0.00158213
0.00587419
0.000693068
0.00588545
0.00292635
0.00577722
0.00482712
0.00519947
0.00598902
0.00432893
0.00635579
0.00348541
0.00633391
0.00629834
0.00444212
-0.00623708
0.00515532
-0.00764455
0.00564855
-0.009338
0.00577789
-0.0101654
0.00612274
-0.00999658
0.00680962
-0.00921003
0.00747921
-0.007675
0.00813808
-0.00523378
0.00885815
-0.00232105
0.00925891
0.00068211
0.00928213
0.00358968
0.00910696
0.00608172
0.00839237
0.00772323
0.00726856
0.00842728
0.005968
0.00846383
0.00823839
0.00668059
-0.00891971
0.00741023
-0.010234
0.00808234
-0.0118926
0.00842326
-0.0129048
0.00877154
-0.0127886
0.00951504
-0.0116354
0.0102567
-0.00952092
0.0110293
-0.00645735
0.0116566
-0.00297202
0.0120413
0.000561422
0.0122673
0.00394325
0.0120865
0.00682035
0.0113658
0.00881641
0.0101672
0.00983112
0.00855478
0.00995825
0.00958585
0.00927573
-0.0117506
0.00991941
-0.0130644
0.010523
-0.0144861
0.0110761
-0.0152588
0.0115717
-0.0151343
0.0122568
-0.0137627
0.0129307
-0.0110974
0.0137001
-0.00748404
0.0141787
-0.00357599
0.0145317
0.000324352
0.0149519
0.00402913
0.01483
0.00714604
0.0141926
0.00938706
0.0130486
0.0106568
0.0112866
0.0109045
0.0105051
0.0122737
-0.0144813
0.0129493
-0.0158619
0.0133803
-0.0172345
0.0139114
-0.0176885
0.014488
-0.0171793
0.0150328
-0.015428
0.0155317
-0.0123236
0.0160703
-0.00827395
0.0165491
-0.00400045
0.0170375
0.000107795
0.0174595
0.00391254
0.0174258
0.00712639
0.0169516
0.009532
0.0159576
0.0110018
0.0141759
0.0113658
0.0110152
0.0156133
-0.0169036
0.0163639
-0.0182929
0.0167467
-0.01957
0.0171166
-0.0198042
0.017519
-0.0188909
0.0178445
-0.0167174
0.0181327
-0.0132927
0.0183893
-0.00898288
0.0188579
-0.00444838
0.0194733
-0.000178527
0.0198607
0.00363698
0.0199543
0.00685161
0.0196936
0.00932847
0.0188506
0.0108758
0.0171645
0.0113201
0.0111309
0.0192654
-0.0188892
0.0199813
-0.0201792
0.0203455
-0.0212381
0.0205347
-0.0212219
0.0206396
-0.0199751
0.0206916
-0.0174919
0.0207712
-0.0138784
0.0208935
-0.00949075
0.0212594
-0.00490516
0.0217988
-0.000592735
0.0222079
0.00319257
0.0224532
0.00634095
0.022375
0.00877434
0.0217103
0.0103397
0.0203242
0.0109125
0.0109175
0.0232226
-0.0203102
0.0237931
-0.0214363
0.0240329
-0.0221475
0.0240064
-0.0218284
0.0238105
-0.0203224
0.0235754
-0.0176579
0.0234352
-0.0140031
0.0234483
-0.00969133
0.0236799
-0.00520701
0.0240839
-0.000957584
0.0245348
0.00274492
0.0249156
0.00576319
0.0250391
0.0080992
0.0247226
0.00965387
0.0238662
0.0103279
0.0105095
0.0275816
-0.0211365
0.0278481
-0.0219625
0.0278423
-0.0222407
0.0275398
-0.0215985
0.0270251
-0.0198897
0.026495
-0.0171792
0.026101
-0.0136517
0.0259491
-0.00959506
0.0260597
-0.00536138
0.0264027
-0.001287
0.0269253
0.00229142
0.0274751
0.00518999
0.0279049
0.00741107
0.028106
0.00890602
0.027969
0.00961694
0.00986764
0.0324856
-0.0212097
0.0322481
-0.0216819
0.0318125
-0.0214354
0.031091
-0.0203829
0.0302031
-0.0184781
0.0293604
-0.0158045
0.0287196
-0.0125519
0.028416
-0.00893079
0.0284572
-0.00513612
0.0288326
-0.00143135
0.0294928
0.00186169
0.0303075
0.00455779
0.0311574
0.00660439
0.0319944
0.00796525
0.0326775
0.00862301
0.00884962
0.0379704
-0.0200756
0.0370014
-0.0201841
0.0358874
-0.019356
0.0346095
-0.0178888
0.0332947
-0.0158378
0.0321421
-0.0133026
0.0313265
-0.0104773
0.0309156
-0.00747423
0.0309435
-0.00434537
0.0314227
-0.00126305
0.0322992
0.00151255
0.0334747
0.00380717
0.0348601
0.00555114
0.0363892
0.00670363
0.0378479
0.00727231
0.0074563
0.0438272
-0.0171695
0.0419494
-0.0169342
0.0399975
-0.0156699
0.0380735
-0.0139664
0.0362943
-0.0119813
0.0348621
-0.00980796
0.0339215
-0.00757766
0.0334714
-0.00532458
0.0335395
-0.00300222
0.0341679
-0.00068942
0.0353232
0.00140956
0.0369213
0.00316172
0.0389068
0.0044998
0.0411385
0.00538783
0.0433548
0.00585905
0.00600414
0.0497624
-0.0121401
0.0468862
-0.011694
0.0440193
-0.0103577
0.0413965
-0.00883631
0.0391628
-0.007269
0.0374645
-0.00570366
0.0363987
-0.0041788
0.0359578
-0.00269515
0.0361336
-0.00119891
0.0369841
0.000279564
0.0384786
0.00162497
0.0405362
0.00276111
0.043103
0.00364175
0.0460332
0.00425652
0.049103
0.00462484
0.00475015
0.0549154
-0.00495364
0.0509306
-0.00451458
0.0472223
-0.00374698
0.044013
-0.00295839
0.0414185
-0.00218461
0.0395156
-0.00143015
0.0383669
-0.000704291
0.0379763
-4.32989e-06
0.0383379
0.000677552
0.0394679
0.00133137
0.0413293
0.00193528
0.0438562
0.00246281
0.0469771
0.0028941
0.0505845
0.00323174
0.0545072
0.0034747
0.00361328
0.0518368
0.0473078
0.0434024
0.0402164
0.0377961
0.0361746
0.0353628
0.0353483
0.0360996
0.0375693
0.0396948
0.042397
0.045577
0.049119
0.0528703
)
;

boundaryField
{
    walls
    {
        type            calculated;
        value           uniform 0;
    }
    cylinder
    {
        type            calculated;
        value           nonuniform List<scalar> 
64
(
9.52745e-12
-1.88171e-11
-1.21524e-11
1.6776e-11
-5.95619e-12
3.27514e-12
9.87054e-12
-8.03828e-12
8.03875e-12
-9.87027e-12
-3.27399e-12
5.95697e-12
-1.67745e-11
1.21528e-11
1.88197e-11
-9.52623e-12
9.52745e-12
-1.88171e-11
-1.21524e-11
1.6776e-11
-5.95619e-12
3.27514e-12
9.87054e-12
-8.03828e-12
8.03875e-12
-9.87027e-12
-3.27399e-12
5.95697e-12
-1.67745e-11
1.21528e-11
1.88197e-11
-9.52623e-12
9.52745e-12
-1.88171e-11
-1.21524e-11
1.6776e-11
-5.95619e-12
3.27514e-12
9.87054e-12
-8.03828e-12
8.03875e-12
-9.87027e-12
-3.27399e-12
5.95697e-12
-1.67745e-11
1.21528e-11
1.88197e-11
-9.52623e-12
9.52745e-12
-1.88171e-11
-1.21524e-11
1.6776e-11
-5.95619e-12
3.27514e-12
9.87054e-12
-8.03828e-12
8.03875e-12
-9.87027e-12
-3.27399e-12
5.95697e-12
-1.67745e-11
1.21528e-11
1.88197e-11
-9.52623e-12
)
;
    }
    outlet
    {
        type            calculated;
        value           uniform 0;
    }
    inlet
    {
        type            calculated;
        value           uniform 0;
    }
    frontAndBack
    {
        type            empty;
    }
}


// ************************************************************************* //
