/*--------------------------------*- C++ -*----------------------------------*\
| =========                 |                                                 |
| \\      /  F ield         | OpenFOAM: The Open Source CFD Toolbox           |
|  \\    /   O peration     | Version:  2412                                  |
|   \\  /    A nd           | Website:  www.openfoam.com                      |
|    \\/     M anipulation  |                                                 |
\*---------------------------------------------------------------------------*/
FoamFile
{
    version     2.0;
    format      ascii;
    arch        "LSB;label=32;scalar=64";
    class       pointVectorField;
    location    "0.8";
    object      pointDisplacement;
}
// * * * * * * * * * * * * * * * * * * * * * * * * * * * * * * * * * * * * * //

dimensions      [0 1 0 0 0 0 0];

internalField   nonuniform List<vector> 
2176
(
(0 0 0)
(0 0 0)
(0 0 0)
(0 0 0)
(0 0 0)
(0 0 0)
(0 0 0)
(0 0 0)
(0 0 0)
(0 0 0)
(0 0 0)
(0 0 0)
(0 0 0)
(0 0 0)
(0 0 0)
(0 0 0)
(0 0 0)
(0.0059133 -0.00830418 0)
(0.00798404 -0.0107935 0)
(0.0121222 -0.0147957 0)
(0.0166416 -0.0174388 0)
(0.0216347 -0.0186041 0)
(0.0269853 -0.0181314 0)
(0.0323363 -0.0159084 0)
(0.0371193 -0.0119857 0)
(0.0405414 -0.0066785 0)
(0.0418422 -0.000651382 0)
(0.0406681 0.00513143 0)
(0.0371787 0.00969777 0)
(0.031877 0.0123319 0)
(0.0254634 0.0127653 0)
(0.0186476 0.0111685 0)
(0.0118469 0.00796598 0)
(0.00828015 0.00584242 0)
(0.014898 -0.0208901 0)
(0.0189422 -0.024992 0)
(0.0269993 -0.0317497 0)
(0.0358005 -0.0358621 0)
(0.0454315 -0.0371518 0)
(0.0555731 -0.0353529 0)
(0.0655239 -0.0303427 0)
(0.0741576 -0.0222978 0)
(0.0800803 -0.0118987 0)
(0.0821365 -0.000424517 0)
(0.0798565 0.0104533 0)
(0.0735282 0.0191045 0)
(0.0640092 0.0243634 0)
(0.0524922 0.0257755 0)
(0.0401107 0.0235468 0)
(0.0275598 0.018276 0)
(0.0208396 0.014757 0)
(0.0265856 -0.0370511 0)
(0.0325853 -0.0419267 0)
(0.0442902 -0.050184 0)
(0.0570683 -0.0546581 0)
(0.0709002 -0.0551394 0)
(0.0852142 -0.0513024 0)
(0.0989536 -0.0430813 0)
(0.110501 -0.0308404 0)
(0.118088 -0.0156519 0)
(0.120408 0.000686197 0)
(0.117042 0.0160138 0)
(0.108424 0.0282967 0)
(0.0956596 0.0361168 0)
(0.0802532 0.0389091 0)
(0.0635599 0.0368513 0)
(0.046429 0.0305717 0)
(0.0369753 0.0263788 0)
(0.0408199 -0.05628 0)
(0.0488261 -0.061152 0)
(0.0639274 -0.0697285 0)
(0.0803554 -0.0735334 0)
(0.0979259 -0.0723616 0)
(0.115785 -0.0658771 0)
(0.132491 -0.0541005 0)
(0.146091 -0.0376514 0)
(0.154657 -0.0179861 0)
(0.156877 0.00271353 0)
(0.152451 0.0219681 0)
(0.141984 0.0375242 0)
(0.126769 0.0478528 0)
(0.108472 0.0523291 0)
(0.0885561 0.051083 0)
(0.0679397 0.0447117 0)
(0.0561863 0.0405547 0)
(0.0574913 -0.0780318 0)
(0.0675901 -0.0821811 0)
(0.0858541 -0.0899862 0)
(0.105592 -0.0921831 0)
(0.126401 -0.0885958 0)
(0.147134 -0.0789312 0)
(0.166011 -0.0633414 0)
(0.180905 -0.0427331 0)
(0.189879 -0.0188895 0)
(0.191734 0.00573822 0)
(0.186291 0.0284917 0)
(0.174321 0.0470398 0)
(0.15729 0.0598354 0)
(0.136914 0.0662315 0)
(0.114695 0.0663116 0)
(0.0915689 0.060628 0)
(0.0779263 0.0571744 0)
(0.076543 -0.101728 0)
(0.0888337 -0.104491 0)
(0.110016 -0.110514 0)
(0.132697 -0.110256 0)
(0.156204 -0.103577 0)
(0.179107 -0.0902769 0)
(0.199417 -0.0707032 0)
(0.214949 -0.0460341 0)
(0.223859 -0.018302 0)
(0.225119 0.00987833 0)
(0.218695 0.0357808 0)
(0.205519 0.0570989 0)
(0.187168 0.0723336 0)
(0.165362 0.0808403 0)
(0.141596 0.0826662 0)
(0.116798 0.0783304 0)
(0.101623 0.0761854 0)
(0.0979869 -0.126769 0)
(0.112554 -0.127526 0)
(0.136379 -0.130826 0)
(0.161591 -0.127342 0)
(0.187219 -0.116987 0)
(0.211608 -0.0996968 0)
(0.232665 -0.076047 0)
(0.248257 -0.047448 0)
(0.256703 -0.0161033 0)
(0.25715 0.0152952 0)
(0.24976 0.044055 0)
(0.235617 0.0679741 0)
(0.216333 0.0856335 0)
(0.193602 0.0964115 0)
(0.16889 0.100332 0)
(0.143102 0.0978978 0)
(0.126673 0.0975958 0)
(0.121921 -0.152529 0)
(0.138811 -0.150682 0)
(0.164967 -0.1504 0)
(0.192236 -0.142989 0)
(0.219378 -0.128458 0)
(0.244578 -0.106916 0)
(0.26574 -0.0791609 0)
(0.280869 -0.0467918 0)
(0.288465 -0.012114 0)
(0.287899 0.0221998 0)
(0.279558 0.0535794 0)
(0.264625 0.0799682 0)
(0.24469 0.100049 0)
(0.221407 0.113242 0)
(0.196206 0.119558 0)
(0.169951 0.119503 0)
(0.152447 0.121505 0)
(0.148543 -0.178328 0)
(0.167736 -0.173285 0)
(0.195856 -0.168626 0)
(0.224658 -0.156663 0)
(0.252672 -0.137542 0)
(0.278005 -0.111566 0)
(0.298643 -0.0797396 0)
(0.312764 -0.0438031 0)
(0.319128 -0.00607593 0)
(0.317391 0.0308796 0)
(0.308109 0.064676 0)
(0.292497 0.0934309 0)
(0.272103 0.115946 0)
(0.24852 0.131694 0)
(0.223134 0.140677 0)
(0.19678 0.143423 0)
(0.178262 0.148113 0)
(0.178148 -0.203372 0)
(0.199573 -0.194542 0)
(0.22923 -0.18477 0)
(0.25896 -0.167696 0)
(0.287127 -0.143644 0)
(0.31186 -0.113136 0)
(0.33129 -0.0773551 0)
(0.343859 -0.0381022 0)
(0.348668 0.00237981 0)
(0.345622 0.0417193 0)
(0.335379 0.0777566 0)
(0.319145 0.108801 0)
(0.29839 0.133781 0)
(0.274625 0.152221 0)
(0.249196 0.164123 0)
(0.22292 0.170033 0)
(0.203329 0.177732 0)
(0.211201 -0.226636 0)
(0.234707 -0.213402 0)
(0.265343 -0.197825 0)
(0.295259 -0.17516 0)
(0.322735 -0.145943 0)
(0.346029 -0.110918 0)
(0.363539 -0.0714001 0)
(0.374048 -0.0291496 0)
(0.376984 0.0137666 0)
(0.372466 0.0552246 0)
(0.361195 0.0933218 0)
(0.344323 0.126584 0)
(0.323223 0.154078 0)
(0.299283 0.175369 0)
(0.273778 0.190445 0)
(0.247528 0.19986 0)
(0.226623 0.210833 0)
(0.248365 -0.246704 0)
(0.273616 -0.228337 0)
(0.304458 -0.206314 0)
(0.333603 -0.177703 0)
(0.359379 -0.143263 0)
(0.3803 -0.103916 0)
(0.395133 -0.0610199 0)
(0.403051 -0.016207 0)
(0.403766 0.0287305 0)
(0.397547 0.0719804 0)
(0.385115 0.111933 0)
(0.367514 0.147352 0)
(0.345972 0.17743 0)
(0.321735 0.201771 0)
(0.295968 0.220329 0)
(0.269446 0.233621 0)
(0.246718 0.248079 0)
(0.29045 -0.261446 0)
(0.316833 -0.237087 0)
(0.346745 -0.20806 0)
(0.373817 -0.173369 0)
(0.396634 -0.133961 0)
(0.414111 -0.0908119 0)
(0.42545 -0.0451594 0)
(0.430214 0.00160541 0)
(0.428343 0.0480366 0)
(0.420181 0.092694 0)
(0.406403 0.134276 0)
(0.387885 0.171783 0)
(0.365643 0.204549 0)
(0.340746 0.232197 0)
(0.314243 0.254606 0)
(0.286838 0.272197 0)
(0.261475 0.29026 0)
(0.338014 -0.267396 0)
(0.364482 -0.23609 0)
(0.39166 -0.199913 0)
(0.414803 -0.1596 0)
(0.433076 -0.116043 0)
(0.445921 -0.0700743 0)
(0.452969 -0.0226578 0)
(0.454075 0.0251728 0)
(0.449314 0.072367 0)
(0.438997 0.117882 0)
(0.423639 0.160766 0)
(0.403904 0.200259 0)
(0.380543 0.235808 0)
(0.354381 0.267026 0)
(0.326261 0.293726 0)
(0.296791 0.316146 0)
(0.26742 0.337917 0)
(0.388214 -0.258011 0)
(0.412525 -0.219577 0)
(0.434203 -0.177885 0)
(0.451392 -0.133817 0)
(0.463803 -0.0879647 0)
(0.471252 -0.0409044 0)
(0.473632 0.0067392 0)
(0.470924 0.0543203 0)
(0.463204 0.10119 0)
(0.450646 0.146711 0)
(0.43352 0.190289 0)
(0.412184 0.231389 0)
(0.387051 0.269551 0)
(0.35859 0.30439 0)
(0.327292 0.335627 0)
(0.293582 0.363167 0)
(0.25802 0.388188 0)
(0.414087 -0.249 0)
(0.436499 -0.207213 0)
(0.454708 -0.163431 0)
(0.468537 -0.118075 0)
(0.477855 -0.0715814 0)
(0.48257 -0.0243988 0)
(0.482638 0.0230188 0)
(0.478057 0.0702148 0)
(0.468873 0.116734 0)
(0.455173 0.16213 0)
(0.43709 0.205964 0)
(0.414797 0.247815 0)
(0.38851 0.287279 0)
(0.358481 0.323976 0)
(0.325 0.357553 0)
(0.288388 0.387687 0)
(0.249 0.414087 0)
(0 0 0)
(0 0 0)
(0 0 0)
(0 0 0)
(0 0 0)
(0 0 0)
(0 0 0)
(0 0 0)
(0 0 0)
(0 0 0)
(0 0 0)
(0 0 0)
(0 0 0)
(0 0 0)
(0 0 0)
(0 0 0)
(0 0 0)
(0.0059133 -0.00830418 0)
(0.00798404 -0.0107935 0)
(0.0121222 -0.0147957 0)
(0.0166416 -0.0174388 0)
(0.0216347 -0.0186041 0)
(0.0269853 -0.0181314 0)
(0.0323363 -0.0159084 0)
(0.0371193 -0.0119857 0)
(0.0405414 -0.0066785 0)
(0.0418422 -0.000651382 0)
(0.0406681 0.00513143 0)
(0.0371787 0.00969777 0)
(0.031877 0.0123319 0)
(0.0254634 0.0127653 0)
(0.0186476 0.0111685 0)
(0.0118469 0.00796598 0)
(0.00828015 0.00584242 0)
(0.014898 -0.0208901 0)
(0.0189422 -0.024992 0)
(0.0269993 -0.0317497 0)
(0.0358005 -0.0358621 0)
(0.0454315 -0.0371518 0)
(0.0555731 -0.0353529 0)
(0.0655239 -0.0303427 0)
(0.0741576 -0.0222978 0)
(0.0800803 -0.0118987 0)
(0.0821365 -0.000424517 0)
(0.0798565 0.0104533 0)
(0.0735282 0.0191045 0)
(0.0640092 0.0243634 0)
(0.0524922 0.0257755 0)
(0.0401107 0.0235468 0)
(0.0275598 0.018276 0)
(0.0208396 0.014757 0)
(0.0265856 -0.0370511 0)
(0.0325853 -0.0419267 0)
(0.0442902 -0.050184 0)
(0.0570683 -0.0546581 0)
(0.0709002 -0.0551394 0)
(0.0852142 -0.0513024 0)
(0.0989536 -0.0430813 0)
(0.110501 -0.0308404 0)
(0.118088 -0.0156519 0)
(0.120408 0.000686197 0)
(0.117042 0.0160138 0)
(0.108424 0.0282967 0)
(0.0956596 0.0361168 0)
(0.0802532 0.0389091 0)
(0.0635599 0.0368513 0)
(0.046429 0.0305717 0)
(0.0369753 0.0263788 0)
(0.0408199 -0.05628 0)
(0.0488261 -0.061152 0)
(0.0639274 -0.0697285 0)
(0.0803554 -0.0735334 0)
(0.0979259 -0.0723616 0)
(0.115785 -0.0658771 0)
(0.132491 -0.0541005 0)
(0.146091 -0.0376514 0)
(0.154657 -0.0179861 0)
(0.156877 0.00271353 0)
(0.152451 0.0219681 0)
(0.141984 0.0375242 0)
(0.126769 0.0478528 0)
(0.108472 0.0523291 0)
(0.0885561 0.051083 0)
(0.0679397 0.0447117 0)
(0.0561863 0.0405547 0)
(0.0574913 -0.0780318 0)
(0.0675901 -0.0821811 0)
(0.0858541 -0.0899862 0)
(0.105592 -0.0921831 0)
(0.126401 -0.0885958 0)
(0.147134 -0.0789312 0)
(0.166011 -0.0633414 0)
(0.180905 -0.0427331 0)
(0.189879 -0.0188895 0)
(0.191734 0.00573822 0)
(0.186291 0.0284917 0)
(0.174321 0.0470398 0)
(0.15729 0.0598354 0)
(0.136914 0.0662315 0)
(0.114695 0.0663116 0)
(0.0915689 0.060628 0)
(0.0779263 0.0571744 0)
(0.076543 -0.101728 0)
(0.0888337 -0.104491 0)
(0.110016 -0.110514 0)
(0.132697 -0.110256 0)
(0.156204 -0.103577 0)
(0.179107 -0.0902769 0)
(0.199417 -0.0707032 0)
(0.214949 -0.0460341 0)
(0.223859 -0.018302 0)
(0.225119 0.00987833 0)
(0.218695 0.0357808 0)
(0.205519 0.0570989 0)
(0.187168 0.0723336 0)
(0.165362 0.0808403 0)
(0.141596 0.0826662 0)
(0.116798 0.0783304 0)
(0.101623 0.0761854 0)
(0.0979869 -0.126769 0)
(0.112554 -0.127526 0)
(0.136379 -0.130826 0)
(0.161591 -0.127342 0)
(0.187219 -0.116987 0)
(0.211608 -0.0996968 0)
(0.232665 -0.076047 0)
(0.248257 -0.047448 0)
(0.256703 -0.0161033 0)
(0.25715 0.0152952 0)
(0.24976 0.044055 0)
(0.235617 0.0679741 0)
(0.216333 0.0856335 0)
(0.193602 0.0964115 0)
(0.16889 0.100332 0)
(0.143102 0.0978978 0)
(0.126673 0.0975958 0)
(0.121921 -0.152529 0)
(0.138811 -0.150682 0)
(0.164967 -0.1504 0)
(0.192236 -0.142989 0)
(0.219378 -0.128458 0)
(0.244578 -0.106916 0)
(0.26574 -0.0791609 0)
(0.280869 -0.0467918 0)
(0.288465 -0.012114 0)
(0.287899 0.0221998 0)
(0.279558 0.0535794 0)
(0.264625 0.0799682 0)
(0.24469 0.100049 0)
(0.221407 0.113242 0)
(0.196206 0.119558 0)
(0.169951 0.119503 0)
(0.152447 0.121505 0)
(0.148543 -0.178328 0)
(0.167736 -0.173285 0)
(0.195856 -0.168626 0)
(0.224658 -0.156663 0)
(0.252672 -0.137542 0)
(0.278005 -0.111566 0)
(0.298643 -0.0797396 0)
(0.312764 -0.0438031 0)
(0.319128 -0.00607593 0)
(0.317391 0.0308796 0)
(0.308109 0.064676 0)
(0.292497 0.0934309 0)
(0.272103 0.115946 0)
(0.24852 0.131694 0)
(0.223134 0.140677 0)
(0.19678 0.143423 0)
(0.178262 0.148113 0)
(0.178148 -0.203372 0)
(0.199573 -0.194542 0)
(0.22923 -0.18477 0)
(0.25896 -0.167696 0)
(0.287127 -0.143644 0)
(0.31186 -0.113136 0)
(0.33129 -0.0773551 0)
(0.343859 -0.0381022 0)
(0.348668 0.00237981 0)
(0.345622 0.0417193 0)
(0.335379 0.0777566 0)
(0.319145 0.108801 0)
(0.29839 0.133781 0)
(0.274625 0.152221 0)
(0.249196 0.164123 0)
(0.22292 0.170033 0)
(0.203329 0.177732 0)
(0.211201 -0.226636 0)
(0.234707 -0.213402 0)
(0.265343 -0.197825 0)
(0.295259 -0.17516 0)
(0.322735 -0.145943 0)
(0.346029 -0.110918 0)
(0.363539 -0.0714001 0)
(0.374048 -0.0291496 0)
(0.376984 0.0137666 0)
(0.372466 0.0552246 0)
(0.361195 0.0933218 0)
(0.344323 0.126584 0)
(0.323223 0.154078 0)
(0.299283 0.175369 0)
(0.273778 0.190445 0)
(0.247528 0.19986 0)
(0.226623 0.210833 0)
(0.248365 -0.246704 0)
(0.273616 -0.228337 0)
(0.304458 -0.206314 0)
(0.333603 -0.177703 0)
(0.359379 -0.143263 0)
(0.3803 -0.103916 0)
(0.395133 -0.0610199 0)
(0.403051 -0.016207 0)
(0.403766 0.0287305 0)
(0.397547 0.0719804 0)
(0.385115 0.111933 0)
(0.367514 0.147352 0)
(0.345972 0.17743 0)
(0.321735 0.201771 0)
(0.295968 0.220329 0)
(0.269446 0.233621 0)
(0.246718 0.248079 0)
(0.29045 -0.261446 0)
(0.316833 -0.237087 0)
(0.346745 -0.20806 0)
(0.373817 -0.173369 0)
(0.396634 -0.133961 0)
(0.414111 -0.0908119 0)
(0.42545 -0.0451594 0)
(0.430214 0.00160541 0)
(0.428343 0.0480366 0)
(0.420181 0.092694 0)
(0.406403 0.134276 0)
(0.387885 0.171783 0)
(0.365643 0.204549 0)
(0.340746 0.232197 0)
(0.314243 0.254606 0)
(0.286838 0.272197 0)
(0.261475 0.29026 0)
(0.338014 -0.267396 0)
(0.364482 -0.23609 0)
(0.39166 -0.199913 0)
(0.414803 -0.1596 0)
(0.433076 -0.116043 0)
(0.445921 -0.0700743 0)
(0.452969 -0.0226578 0)
(0.454075 0.0251728 0)
(0.449314 0.072367 0)
(0.438997 0.117882 0)
(0.423639 0.160766 0)
(0.403904 0.200259 0)
(0.380543 0.235808 0)
(0.354381 0.267026 0)
(0.326261 0.293726 0)
(0.296791 0.316146 0)
(0.26742 0.337917 0)
(0.388214 -0.258011 0)
(0.412525 -0.219577 0)
(0.434203 -0.177885 0)
(0.451392 -0.133817 0)
(0.463803 -0.0879647 0)
(0.471252 -0.0409044 0)
(0.473632 0.0067392 0)
(0.470924 0.0543203 0)
(0.463204 0.10119 0)
(0.450646 0.146711 0)
(0.43352 0.190289 0)
(0.412184 0.231389 0)
(0.387051 0.269551 0)
(0.35859 0.30439 0)
(0.327292 0.335627 0)
(0.293582 0.363167 0)
(0.25802 0.388188 0)
(0.414087 -0.249 0)
(0.436499 -0.207213 0)
(0.454708 -0.163431 0)
(0.468537 -0.118075 0)
(0.477855 -0.0715814 0)
(0.48257 -0.0243988 0)
(0.482638 0.0230188 0)
(0.478057 0.0702148 0)
(0.468873 0.116734 0)
(0.455173 0.16213 0)
(0.43709 0.205964 0)
(0.414797 0.247815 0)
(0.38851 0.287279 0)
(0.358481 0.323976 0)
(0.325 0.357553 0)
(0.288388 0.387687 0)
(0.249 0.414087 0)
(0 0 0)
(0 0 0)
(0 0 0)
(0 0 0)
(0 0 0)
(0 0 0)
(0 0 0)
(0 0 0)
(0 0 0)
(0 0 0)
(0 0 0)
(0 0 0)
(0 0 0)
(0 0 0)
(0 0 0)
(0 0 0)
(0.0107696 0.00791126 0)
(0.0147713 0.0120476 0)
(0.0174162 0.0165622 0)
(0.0185822 0.0215551 0)
(0.0181153 0.0269268 0)
(0.0158985 0.0323154 0)
(0.0119743 0.0371378 0)
(0.00666349 0.0405879 0)
(0.000635078 0.0419037 0)
(-0.00514034 0.0407219 0)
(-0.0096934 0.0372005 0)
(-0.0123159 0.0318768 0)
(-0.0127472 0.025461 0)
(-0.0111618 0.0186538 0)
(-0.0079732 0.0118598 0)
(-0.00585066 0.0082908 0)
(0.0249415 0.0187939 0)
(0.0317035 0.0268479 0)
(0.035824 0.0356444 0)
(0.0371186 0.0452814 0)
(0.0353307 0.0554669 0)
(0.0303286 0.065483 0)
(0.0222783 0.0741789 0)
(0.0118716 0.0801452 0)
(0.000398751 0.0822243 0)
(-0.0104633 0.0799296 0)
(-0.0190915 0.0735539 0)
(-0.0243295 0.0640021 0)
(-0.0257354 0.0524801 0)
(-0.0235211 0.0401116 0)
(-0.01827 0.0275732 0)
(-0.0147531 0.020853 0)
(0.0418566 0.0323673 0)
(0.0501234 0.0440652 0)
(0.0546133 0.0568425 0)
(0.0551078 0.070696 0)
(0.0512843 0.0850719 0)
(0.0430679 0.0988931 0)
(0.0308174 0.110513 0)
(0.0156198 0.118148 0)
(-0.000713442 0.120491 0)
(-0.0160181 0.117108 0)
(-0.0282702 0.10844 0)
(-0.0360623 0.095638 0)
(-0.0388427 0.0802251 0)
(-0.036796 0.0635469 0)
(-0.0305367 0.0464337 0)
(-0.0263462 0.0369838 0)
(0.0610685 0.0485422 0)
(0.0696632 0.0636365 0)
(0.0734942 0.0800722 0)
(0.0723427 0.0976796 0)
(0.0658708 0.115615 0)
(0.0540933 0.13241 0)
(0.03763 0.146083 0)
(0.0179543 0.154695 0)
(-0.00273573 0.156934 0)
(-0.0219605 0.15249 0)
(-0.0374803 0.141977 0)
(-0.0477744 0.126727 0)
(-0.0522314 0.108423 0)
(-0.0509889 0.0885216 0)
(-0.044634 0.0679261 0)
(-0.04048 0.056182 0)
(0.082095 0.0672494 0)
(0.0899273 0.0855061 0)
(0.0921586 0.105261 0)
(0.0885977 0.126124 0)
(0.0789431 0.146943 0)
(0.063345 0.16591 0)
(0.042719 0.180873 0)
(0.0188665 0.189888 0)
(-0.00574823 0.191756 0)
(-0.0284678 0.186297 0)
(-0.0469745 0.174286 0)
(-0.0597299 0.157223 0)
(-0.066098 0.13684 0)
(-0.0661722 0.114635 0)
(-0.0604994 0.0915333 0)
(-0.0570497 0.0779049 0)
(0.104413 0.0884439 0)
(0.110472 0.109622 0)
(0.110257 0.132332 0)
(0.103606 0.155905 0)
(0.0903106 0.178899 0)
(0.0707229 0.199295 0)
(0.0460341 0.214889 0)
(0.018294 0.223833 0)
(-0.00986951 0.225104 0)
(-0.0357352 0.218664 0)
(-0.05701 0.205453 0)
(-0.0721996 0.187075 0)
(-0.0806693 0.165262 0)
(-0.0824775 0.141509 0)
(-0.0781458 0.116737 0)
(-0.0760068 0.101581 0)
(0.127465 0.112126 0)
(0.13081 0.135951 0)
(0.127373 0.1612 0)
(0.117045 0.186904 0)
(0.0997552 0.211386 0)
(0.0760867 0.232522 0)
(0.0474675 0.248169 0)
(0.0161184 0.256646 0)
(-0.0152615 0.257101 0)
(-0.0439855 0.249696 0)
(-0.0678616 0.235525 0)
(-0.0854724 0.216217 0)
(-0.0962041 0.193478 0)
(-0.100097 0.168779 0)
(-0.0976613 0.143017 0)
(-0.0973681 0.126611 0)
(0.150645 0.138353 0)
(0.150415 0.164516 0)
(0.143053 0.191834 0)
(0.128548 0.219057 0)
(0.107 0.244346 0)
(0.0792235 0.265581 0)
(0.0468363 0.280755 0)
(0.0121568 0.288377 0)
(-0.0221377 0.287819 0)
(-0.0534848 0.279468 0)
(-0.0798347 0.264512 0)
(-0.0998662 0.244556 0)
(-0.113009 0.221267 0)
(-0.119291 0.19608 0)
(-0.119229 0.169851 0)
(-0.121242 0.15237 0)
(0.173275 0.167267 0)
(0.168674 0.195403 0)
(0.15676 0.224259 0)
(0.13766 0.252352 0)
(0.111675 0.277769 0)
(0.0798255 0.298471 0)
(0.0438722 0.312632 0)
(0.00614707 0.31902 0)
(-0.03079 0.317292 0)
(-0.0645617 0.308004 0)
(-0.0932848 0.292373 0)
(-0.115754 0.271962 0)
(-0.131453 0.248377 0)
(-0.1404 0.223005 0)
(-0.143136 0.196674 0)
(-0.147836 0.178178 0)
(0.194563 0.199123 0)
(0.184848 0.228801 0)
(0.16782 0.258585 0)
(0.143784 0.286825 0)
(0.113263 0.311628 0)
(0.0774592 0.331113 0)
(0.038194 0.343717 0)
(-0.00228268 0.348548 0)
(-0.0416074 0.345516 0)
(-0.0776298 0.335269 0)
(-0.108652 0.319021 0)
(-0.133596 0.298254 0)
(-0.151993 0.274489 0)
(-0.163863 0.249074 0)
(-0.16976 0.222815 0)
(-0.177465 0.203241 0)
(0.21345 0.234311 0)
(0.197926 0.264971 0)
(0.175298 0.294934 0)
(0.146088 0.322467 0)
(0.111049 0.345816 0)
(0.071511 0.363368 0)
(0.029252 0.373907 0)
(-0.0136576 0.376869 0)
(-0.0551045 0.372364 0)
(-0.0931945 0.361092 0)
(-0.126446 0.344209 0)
(-0.153915 0.323101 0)
(-0.175177 0.299161 0)
(-0.190225 0.273665 0)
(-0.199625 0.247425 0)
(-0.210603 0.22653 0)
(0.228408 0.273305 0)
(0.206424 0.304167 0)
(0.177834 0.333346 0)
(0.143394 0.359163 0)
(0.104031 0.380122 0)
(0.0611174 0.394986 0)
(0.0163 0.402932 0)
(-0.0286295 0.403668 0)
(-0.0718733 0.397461 0)
(-0.111825 0.385029 0)
(-0.147241 0.367418 0)
(-0.177308 0.345869 0)
(-0.201632 0.321629 0)
(-0.22017 0.295865 0)
(-0.233448 0.269348 0)
(-0.247907 0.246627 0)
(0.23716 0.316623 0)
(0.208154 0.34655 0)
(0.173471 0.373643 0)
(0.134057 0.396485 0)
(0.0908928 0.413985 0)
(0.0452284 0.425346 0)
(-0.00153778 0.430129 0)
(-0.0479643 0.428274 0)
(-0.0926181 0.420122 0)
(-0.134203 0.40634 0)
(-0.171712 0.387816 0)
(-0.204477 0.365565 0)
(-0.232117 0.340663 0)
(-0.254516 0.314159 0)
(-0.272095 0.286755 0)
(-0.290158 0.261397 0)
(0.236139 0.364376 0)
(0.199971 0.391562 0)
(0.159658 0.414714 0)
(0.116094 0.432999 0)
(0.0701162 0.445855 0)
(0.0226931 0.452914 0)
(-0.0251383 0.454031 0)
(-0.0723295 0.449279 0)
(-0.117844 0.438965 0)
(-0.160731 0.423606 0)
(-0.200227 0.403866 0)
(-0.235777 0.3805 0)
(-0.266993 0.354333 0)
(-0.293688 0.326211 0)
(-0.316102 0.29674 0)
(-0.337874 0.267372 0)
(0.219593 0.412497 0)
(0.177902 0.434177 0)
(0.133834 0.451368 0)
(0.087979 0.463782 0)
(0.0409155 0.471235 0)
(-0.00672997 0.473617 0)
(-0.0543109 0.470912 0)
(-0.10118 0.463195 0)
(-0.146701 0.450637 0)
(-0.19028 0.433511 0)
(-0.231381 0.412173 0)
(-0.269544 0.387039 0)
(-0.304382 0.358576 0)
(-0.335619 0.327277 0)
(-0.363157 0.293567 0)
(-0.388179 0.258006 0)
(0.207213 0.436499 0)
(0.163431 0.454708 0)
(0.118075 0.468537 0)
(0.0715814 0.477855 0)
(0.0243988 0.48257 0)
(-0.0230188 0.482638 0)
(-0.0702148 0.478057 0)
(-0.116734 0.468873 0)
(-0.16213 0.455173 0)
(-0.205964 0.43709 0)
(-0.247815 0.414797 0)
(-0.287279 0.38851 0)
(-0.323976 0.358481 0)
(-0.357553 0.325 0)
(-0.387687 0.288388 0)
(-0.414087 0.249 0)
(0 0 0)
(0 0 0)
(0 0 0)
(0 0 0)
(0 0 0)
(0 0 0)
(0 0 0)
(0 0 0)
(0 0 0)
(0 0 0)
(0 0 0)
(0 0 0)
(0 0 0)
(0 0 0)
(0 0 0)
(0 0 0)
(0.0107696 0.00791126 0)
(0.0147713 0.0120476 0)
(0.0174162 0.0165622 0)
(0.0185822 0.0215551 0)
(0.0181153 0.0269268 0)
(0.0158985 0.0323154 0)
(0.0119743 0.0371378 0)
(0.00666349 0.0405879 0)
(0.000635078 0.0419037 0)
(-0.00514034 0.0407219 0)
(-0.0096934 0.0372005 0)
(-0.0123159 0.0318768 0)
(-0.0127472 0.025461 0)
(-0.0111618 0.0186538 0)
(-0.0079732 0.0118598 0)
(-0.00585066 0.0082908 0)
(0.0249415 0.0187939 0)
(0.0317035 0.0268479 0)
(0.035824 0.0356444 0)
(0.0371186 0.0452814 0)
(0.0353307 0.0554669 0)
(0.0303286 0.065483 0)
(0.0222783 0.0741789 0)
(0.0118716 0.0801452 0)
(0.000398751 0.0822243 0)
(-0.0104633 0.0799296 0)
(-0.0190915 0.0735539 0)
(-0.0243295 0.0640021 0)
(-0.0257354 0.0524801 0)
(-0.0235211 0.0401116 0)
(-0.01827 0.0275732 0)
(-0.0147531 0.020853 0)
(0.0418566 0.0323673 0)
(0.0501234 0.0440652 0)
(0.0546133 0.0568425 0)
(0.0551078 0.070696 0)
(0.0512843 0.0850719 0)
(0.0430679 0.0988931 0)
(0.0308174 0.110513 0)
(0.0156198 0.118148 0)
(-0.000713442 0.120491 0)
(-0.0160181 0.117108 0)
(-0.0282702 0.10844 0)
(-0.0360623 0.095638 0)
(-0.0388427 0.0802251 0)
(-0.036796 0.0635469 0)
(-0.0305367 0.0464337 0)
(-0.0263462 0.0369838 0)
(0.0610685 0.0485422 0)
(0.0696632 0.0636365 0)
(0.0734942 0.0800722 0)
(0.0723427 0.0976796 0)
(0.0658708 0.115615 0)
(0.0540933 0.13241 0)
(0.03763 0.146083 0)
(0.0179543 0.154695 0)
(-0.00273573 0.156934 0)
(-0.0219605 0.15249 0)
(-0.0374803 0.141977 0)
(-0.0477744 0.126727 0)
(-0.0522314 0.108423 0)
(-0.0509889 0.0885216 0)
(-0.044634 0.0679261 0)
(-0.04048 0.056182 0)
(0.082095 0.0672494 0)
(0.0899273 0.0855061 0)
(0.0921586 0.105261 0)
(0.0885977 0.126124 0)
(0.0789431 0.146943 0)
(0.063345 0.16591 0)
(0.042719 0.180873 0)
(0.0188665 0.189888 0)
(-0.00574823 0.191756 0)
(-0.0284678 0.186297 0)
(-0.0469745 0.174286 0)
(-0.0597299 0.157223 0)
(-0.066098 0.13684 0)
(-0.0661722 0.114635 0)
(-0.0604994 0.0915333 0)
(-0.0570497 0.0779049 0)
(0.104413 0.0884439 0)
(0.110472 0.109622 0)
(0.110257 0.132332 0)
(0.103606 0.155905 0)
(0.0903106 0.178899 0)
(0.0707229 0.199295 0)
(0.0460341 0.214889 0)
(0.018294 0.223833 0)
(-0.00986951 0.225104 0)
(-0.0357352 0.218664 0)
(-0.05701 0.205453 0)
(-0.0721996 0.187075 0)
(-0.0806693 0.165262 0)
(-0.0824775 0.141509 0)
(-0.0781458 0.116737 0)
(-0.0760068 0.101581 0)
(0.127465 0.112126 0)
(0.13081 0.135951 0)
(0.127373 0.1612 0)
(0.117045 0.186904 0)
(0.0997552 0.211386 0)
(0.0760867 0.232522 0)
(0.0474675 0.248169 0)
(0.0161184 0.256646 0)
(-0.0152615 0.257101 0)
(-0.0439855 0.249696 0)
(-0.0678616 0.235525 0)
(-0.0854724 0.216217 0)
(-0.0962041 0.193478 0)
(-0.100097 0.168779 0)
(-0.0976613 0.143017 0)
(-0.0973681 0.126611 0)
(0.150645 0.138353 0)
(0.150415 0.164516 0)
(0.143053 0.191834 0)
(0.128548 0.219057 0)
(0.107 0.244346 0)
(0.0792235 0.265581 0)
(0.0468363 0.280755 0)
(0.0121568 0.288377 0)
(-0.0221377 0.287819 0)
(-0.0534848 0.279468 0)
(-0.0798347 0.264512 0)
(-0.0998662 0.244556 0)
(-0.113009 0.221267 0)
(-0.119291 0.19608 0)
(-0.119229 0.169851 0)
(-0.121242 0.15237 0)
(0.173275 0.167267 0)
(0.168674 0.195403 0)
(0.15676 0.224259 0)
(0.13766 0.252352 0)
(0.111675 0.277769 0)
(0.0798255 0.298471 0)
(0.0438722 0.312632 0)
(0.00614707 0.31902 0)
(-0.03079 0.317292 0)
(-0.0645617 0.308004 0)
(-0.0932848 0.292373 0)
(-0.115754 0.271962 0)
(-0.131453 0.248377 0)
(-0.1404 0.223005 0)
(-0.143136 0.196674 0)
(-0.147836 0.178178 0)
(0.194563 0.199123 0)
(0.184848 0.228801 0)
(0.16782 0.258585 0)
(0.143784 0.286825 0)
(0.113263 0.311628 0)
(0.0774592 0.331113 0)
(0.038194 0.343717 0)
(-0.00228268 0.348548 0)
(-0.0416074 0.345516 0)
(-0.0776298 0.335269 0)
(-0.108652 0.319021 0)
(-0.133596 0.298254 0)
(-0.151993 0.274489 0)
(-0.163863 0.249074 0)
(-0.16976 0.222815 0)
(-0.177465 0.203241 0)
(0.21345 0.234311 0)
(0.197926 0.264971 0)
(0.175298 0.294934 0)
(0.146088 0.322467 0)
(0.111049 0.345816 0)
(0.071511 0.363368 0)
(0.029252 0.373907 0)
(-0.0136576 0.376869 0)
(-0.0551045 0.372364 0)
(-0.0931945 0.361092 0)
(-0.126446 0.344209 0)
(-0.153915 0.323101 0)
(-0.175177 0.299161 0)
(-0.190225 0.273665 0)
(-0.199625 0.247425 0)
(-0.210603 0.22653 0)
(0.228408 0.273305 0)
(0.206424 0.304167 0)
(0.177834 0.333346 0)
(0.143394 0.359163 0)
(0.104031 0.380122 0)
(0.0611174 0.394986 0)
(0.0163 0.402932 0)
(-0.0286295 0.403668 0)
(-0.0718733 0.397461 0)
(-0.111825 0.385029 0)
(-0.147241 0.367418 0)
(-0.177308 0.345869 0)
(-0.201632 0.321629 0)
(-0.22017 0.295865 0)
(-0.233448 0.269348 0)
(-0.247907 0.246627 0)
(0.23716 0.316623 0)
(0.208154 0.34655 0)
(0.173471 0.373643 0)
(0.134057 0.396485 0)
(0.0908928 0.413985 0)
(0.0452284 0.425346 0)
(-0.00153778 0.430129 0)
(-0.0479643 0.428274 0)
(-0.0926181 0.420122 0)
(-0.134203 0.40634 0)
(-0.171712 0.387816 0)
(-0.204477 0.365565 0)
(-0.232117 0.340663 0)
(-0.254516 0.314159 0)
(-0.272095 0.286755 0)
(-0.290158 0.261397 0)
(0.236139 0.364376 0)
(0.199971 0.391562 0)
(0.159658 0.414714 0)
(0.116094 0.432999 0)
(0.0701162 0.445855 0)
(0.0226931 0.452914 0)
(-0.0251383 0.454031 0)
(-0.0723295 0.449279 0)
(-0.117844 0.438965 0)
(-0.160731 0.423606 0)
(-0.200227 0.403866 0)
(-0.235777 0.3805 0)
(-0.266993 0.354333 0)
(-0.293688 0.326211 0)
(-0.316102 0.29674 0)
(-0.337874 0.267372 0)
(0.219593 0.412497 0)
(0.177902 0.434177 0)
(0.133834 0.451368 0)
(0.087979 0.463782 0)
(0.0409155 0.471235 0)
(-0.00672997 0.473617 0)
(-0.0543109 0.470912 0)
(-0.10118 0.463195 0)
(-0.146701 0.450637 0)
(-0.19028 0.433511 0)
(-0.231381 0.412173 0)
(-0.269544 0.387039 0)
(-0.304382 0.358576 0)
(-0.335619 0.327277 0)
(-0.363157 0.293567 0)
(-0.388179 0.258006 0)
(0.207213 0.436499 0)
(0.163431 0.454708 0)
(0.118075 0.468537 0)
(0.0715814 0.477855 0)
(0.0243988 0.48257 0)
(-0.0230188 0.482638 0)
(-0.0702148 0.478057 0)
(-0.116734 0.468873 0)
(-0.16213 0.455173 0)
(-0.205964 0.43709 0)
(-0.247815 0.414797 0)
(-0.287279 0.38851 0)
(-0.323976 0.358481 0)
(-0.357553 0.325 0)
(-0.387687 0.288388 0)
(-0.414087 0.249 0)
(0 0 0)
(0 0 0)
(0 0 0)
(0 0 0)
(0 0 0)
(0 0 0)
(0 0 0)
(0 0 0)
(0 0 0)
(0 0 0)
(0 0 0)
(0 0 0)
(0 0 0)
(0 0 0)
(0 0 0)
(0 0 0)
(-0.00790577 0.0107739 0)
(-0.0120282 0.0147717 0)
(-0.016541 0.0174196 0)
(-0.0215373 0.0185925 0)
(-0.0269017 0.0181263 0)
(-0.0322733 0.0159064 0)
(-0.0370773 0.0119833 0)
(-0.0405156 0.00667412 0)
(-0.0418264 0.000645459 0)
(-0.0406575 -0.00513688 0)
(-0.0371703 -0.00970037 0)
(-0.03187 -0.0123309 0)
(-0.0254581 -0.0127625 0)
(-0.0186439 -0.0111672 0)
(-0.0118442 -0.00796931 0)
(-0.00827691 -0.00584951 0)
(-0.0187674 0.0249461 0)
(-0.026801 0.031702 0)
(-0.0355983 0.0358258 0)
(-0.0452434 0.0371314 0)
(-0.0554166 0.0353452 0)
(-0.0654078 0.0303401 0)
(-0.0740802 0.0222939 0)
(-0.0800322 0.011891 0)
(-0.0821069 0.000413993 0)
(-0.0798366 -0.0104631 0)
(-0.0735124 -0.0191096 0)
(-0.0639956 -0.0243626 0)
(-0.0524811 -0.0257715 0)
(-0.0401027 -0.0235443 0)
(-0.0275539 -0.0182802 0)
(-0.020833 -0.0147672 0)
(-0.0323084 0.0418567 0)
(-0.0439864 0.0501167 0)
(-0.0567697 0.0546096 0)
(-0.0706317 0.0551144 0)
(-0.0849967 0.0512946 0)
(-0.0987949 0.0430796 0)
(-0.110395 0.0308362 0)
(-0.118022 0.0156419 0)
(-0.120368 -0.000700009 0)
(-0.117015 -0.0160268 0)
(-0.108402 -0.0283041 0)
(-0.0956401 -0.0361173 0)
(-0.0802366 -0.0389053 0)
(-0.0635471 -0.0368481 0)
(-0.0464191 -0.0305753 0)
(-0.0369651 -0.026389 0)
(-0.0484434 0.0610593 0)
(-0.063523 0.0696481 0)
(-0.0799693 0.0734793 0)
(-0.0975892 0.0723364 0)
(-0.115518 0.0658715 0)
(-0.1323 0.054101 0)
(-0.145964 0.0376477 0)
(-0.154578 0.017975 0)
(-0.156827 -0.00272942 0)
(-0.152418 -0.0219834 0)
(-0.141957 -0.0375336 0)
(-0.126745 -0.0478548 0)
(-0.108451 -0.0523261 0)
(-0.0885385 -0.0510795 0)
(-0.0679253 -0.0447139 0)
(-0.0561718 -0.0405635 0)
(-0.0671067 0.0820729 0)
(-0.0853579 0.0899008 0)
(-0.105131 0.0921307 0)
(-0.12601 0.0885753 0)
(-0.146832 0.0789305 0)
(-0.165798 0.0633452 0)
(-0.180765 0.0427308 0)
(-0.189791 0.0188783 0)
(-0.191679 -0.0057551 0)
(-0.186254 -0.0285083 0)
(-0.174291 -0.0470507 0)
(-0.157262 -0.0598389 0)
(-0.136889 -0.0662295 0)
(-0.114672 -0.066308 0)
(-0.0915496 -0.0606287 0)
(-0.077907 -0.0571805 0)
(-0.0882577 0.104375 0)
(-0.109443 0.110433 0)
(-0.132178 0.110213 0)
(-0.155776 0.103566 0)
(-0.178784 0.0902831 0)
(-0.199193 0.070711 0)
(-0.214804 0.0460338 0)
(-0.223768 0.0182915 0)
(-0.225061 -0.00989513 0)
(-0.218655 -0.0357977 0)
(-0.205487 -0.0571106 0)
(-0.187138 -0.0723383 0)
(-0.165333 -0.0808392 0)
(-0.14157 -0.0826624 0)
(-0.116774 -0.078329 0)
(-0.101599 -0.0761881 0)
(-0.111902 0.127413 0)
(-0.135747 0.130758 0)
(-0.161034 0.127315 0)
(-0.186772 0.116989 0)
(-0.211279 0.0997111 0)
(-0.232441 0.0760591 0)
(-0.248113 0.0474499 0)
(-0.256613 0.0160943 0)
(-0.257093 -0.015311 0)
(-0.24972 -0.0440712 0)
(-0.235584 -0.0679857 0)
(-0.216302 -0.0856387 0)
(-0.193572 -0.0964109 0)
(-0.168861 -0.100328 0)
(-0.143073 -0.0978943 0)
(-0.126644 -0.0975945 0)
(-0.138105 0.150581 0)
(-0.164301 0.150352 0)
(-0.191667 0.142982 0)
(-0.218934 0.128475 0)
(-0.24426 0.106939 0)
(-0.265528 0.0791768 0)
(-0.280733 0.0467958 0)
(-0.28838 0.0121068 0)
(-0.287843 -0.0222135 0)
(-0.279518 -0.0535937 0)
(-0.264592 -0.0799786 0)
(-0.244659 -0.100054 0)
(-0.221376 -0.113241 0)
(-0.196175 -0.119553 0)
(-0.169919 -0.119497 0)
(-0.152414 -0.1215 0)
(-0.167013 0.173203 0)
(-0.195192 0.168601 0)
(-0.224107 0.156676 0)
(-0.252255 0.137571 0)
(-0.277714 0.111594 0)
(-0.298452 0.0797579 0)
(-0.312643 0.0438087 0)
(-0.319052 0.00607088 0)
(-0.31734 -0.0308906 0)
(-0.308071 -0.0646875 0)
(-0.292465 -0.0934391 0)
(-0.272073 -0.115949 0)
(-0.24849 -0.131692 0)
(-0.223103 -0.140671 0)
(-0.196747 -0.143414 0)
(-0.178227 -0.148103 0)
(-0.198886 0.194483 0)
(-0.228615 0.184766 0)
(-0.258464 0.167725 0)
(-0.286762 0.143682 0)
(-0.31161 0.113167 0)
(-0.331129 0.0773736 0)
(-0.343757 0.0381085 0)
(-0.348603 -0.0023828 0)
(-0.345578 -0.041727 0)
(-0.335344 -0.0777643 0)
(-0.319115 -0.108806 0)
(-0.298362 -0.133782 0)
(-0.274596 -0.152217 0)
(-0.249166 -0.164113 0)
(-0.222887 -0.17002 0)
(-0.203295 -0.177717 0)
(-0.234113 0.213366 0)
(-0.264827 0.197837 0)
(-0.294853 0.175196 0)
(-0.322442 0.14598 0)
(-0.345832 0.110946 0)