/*--------------------------------*- C++ -*----------------------------------*\
| =========                 |                                                 |
| \\      /  F ield         | OpenFOAM: The Open Source CFD Toolbox           |
|  \\    /   O peration     | Version:  2412                                  |
|   \\  /    A nd           | Website:  www.openfoam.com                      |
|    \\/     M anipulation  |                                                 |
\*---------------------------------------------------------------------------*/
FoamFile
{
    version     2.0;
    format      ascii;
    arch        "LSB;label=32;scalar=64";
    class       volScalarField;
    location    "1561.5";
    object      p;
}
// * * * * * * * * * * * * * * * * * * * * * * * * * * * * * * * * * * * * * //

dimensions      [0 2 -2 0 0 0 0];

internalField   nonuniform List<scalar> 
808
(
-0.03553957546618366
0.04505296123515352
-0.01193429412986469
0.03540387191536196
-0.3027782737587851
-0.05460453655009953
-0.01451261295425759
-0.02383797851295881
-0.1993520709236567
-0.08522232877568585
-0.009338920531776047
-0.2568966239055313
-0.03054868098988707
-0.01293521068542188
-0.1227339084189376
-0.01398272294012611
-0.1414608836646716
-0.01354750262760458
-0.01261134174794793
-0.05670658874226783
-0.005920448911482438
0.1181214205006005
-0.06105933679550514
-0.07301828943459807
0.1761806477801169
-0.09928887467843124
-0.154606284129597
-0.0203120192960743
-0.01739501234411744
-0.02604386432185745
-0.02016204508438906
-0.05957690733819298
-0.02299305707456354
-0.01684739306837575
-0.1006282271991623
0.3442936097013267
-0.0385843648200233
-0.01685654779109216
-0.0232523426024083
-0.02659501741685734
-0.09145340898807293
-0.1284050291231774
-0.05088502236608791
-0.0205938518657912
-0.05509060846490939
-0.04010931187293005
-0.01237706900438588
-0.18679490548641
-0.02751353509633689
-0.2066069504514674
-0.01604091240832935
-0.06857823694115808
-0.05964232621190953
-0.01493915247281277
-0.190884284505509
-0.028908376178689
-0.01073878185872557
-0.01458351699193882
-0.1019010317133269
-0.04055312724762679
-0.09599027703973184
-0.128009516527265
-0.01340852648667643
-0.1294180738087384
-0.01687515643827692
-0.05069855326627527
-0.1658353867603639
-0.03567911782286715
-0.01489141668658042
-0.4449480855747689
-0.02696762300137883
-0.3070684035630055
-0.02199335460097676
-0.02028388485314771
-0.06652353323578013
-0.01736422349247332
-0.04338218678311057
-0.3606356982004742
-0.03542671027878912
0.04150545200686153
-0.0907381640661743
-0.01728453088248712
0.0568005225005686
0.0438991576246603
-0.01657955467476178
-0.0530954636239156
-0.5476872793848511
-0.2235081731946262
-0.05318236275878415
-0.1117686600547068
-0.057717484036224
-0.134286761764508
0.0404770690417216
-0.02409156292151216
-0.06069689944934631
-0.118129193858109
-0.03850190489568648
-0.0521509785998996
-0.1175804963442519
-0.1389517677335912
-0.05206748148324186
-0.04825252034780285
-0.05538819616064612
-0.0456351271213934
-0.05784006269204992
-0.07340424562301301
-0.04163550946771442
-0.01131426844988415
-0.04099877815171057
-0.1260688172588485
-0.05116394511363281
0.08309384025228117
-0.04306102091561101
-0.008258254013508959
-0.0278532924068574
0.1803140257071295
-0.03969141303017036
-0.2726279376241351
-0.02025758372210081
-0.05459452416774247
-0.02689578372253754
-0.04790067559410442
0.01273536378637736
-0.04978513537063086
-0.03426840421589417
-0.2149215274043541
-0.0424948917622491
-0.005194031709635111
-0.07731095050097836
-0.06770405351285144
-0.1447185025979106
-0.02084770913867491
-0.07620507468549143
-0.0414756292448192
-0.02269573512150868
-0.0164554403465105
-0.006468759177438853
-0.007303731452466071
-0.05306681350475372
-0.0507490740019884
-0.2120018249268605
-0.05776748973767578
-0.008559987551223822
-0.02273703913517726
-0.1452409316112368
-0.002591683983721348
-0.0774478506228059
-0.0233152661678912
-0.001108235592120412
-0.0107061696599695
-0.03385733340440694
0.09523919186406055
-0.03959819690396177
0.2525889956283117
-0.2678243279088071
-0.130644733214934
-0.03710667784853729
-0.09116010661013696
-0.009305637820447235
-0.1120167097780502
-0.1854999759862701
-0.2166672563928171
-0.1810209701725923
0.0555552943154595
-0.0619562695864349
-0.0202727089833985
-0.06776468166820702
-0.1694658900921392
-0.02387793706032281
-0.01839502251815371
-0.05304865751096933
-0.01832471057401712
-0.006111955878564272
-0.1097287850666706
-0.02273779224311043
-0.04632260884933417
-0.06894761811401995
-0.1631066267990197
-0.03372411532056224
-0.3952218405054083
-0.01779370879459799
-0.2229987722666427
-0.04524642222839707
0.03095989336143881
-0.1057234037722452
-0.01436481550623163
-0.04166857495248001
-0.1051602988888526
-0.01764157486374345
-0.09650796517375757
-0.2065851675840947
-0.07268401321963973
-0.02366980120933042
-0.04948352913733148
-0.04365742720933285
-0.2047797206007797
-0.02181804456610925
-0.01893534585518978
-0.01135680151286142
-0.05484905132688911
-0.05175926305792809
-0.02234364011024046
-0.02087534935792126
-0.2471303086206653
0.1278955717788418
-0.2013031353690896
-0.2057282366317812
-0.01179888499201025
-0.01158940391200534
-0.0676279517664346
-0.009664231486342314
-0.5138028794553403
-0.1208967265779031
-0.0189136067809557
-0.0008795504775150201
-0.02427766110841221
-0.2861784996543447
-0.2748022615839107
-0.007024825056806329
-0.01743106061891963
-0.001754353986117268
-0.3453652035295283
-0.02822779747719924
-0.02911154438097307
-0.01248205611447335
-0.0197838663426551
0.05080919629425645
-0.1070845506322277
-0.01392622343866308
-0.02073264713735101
-0.04317484227324969
-0.01817772907327871
-0.01610405013351303
-0.02337110638357582
-0.06699375940498999
-0.01181790331840438
-0.01908270694057643
-0.008499954386952
-0.0007141149712116594
-0.02957282547417235
-0.001567343843334574
-0.002286151180935126
-0.006028281289266605
-0.02563108845051786
-0.007971132481429929
0.001519851918437358
-0.004219614715852058
0.001231273321966457
0.002553229425735971
-0.008669945919446701
-0.1430752197970263
-0.003025335290761892
-0.001501772251005263
-0.04852438208295088
-0.02155977299269536
-0.02484838290467876
-0.01438879464075883
-0.00611050705825509
-0.02083569448101897
-0.03764614653824089
-0.01393237208170002
-0.01286638920367796
-0.01177706103294859
0.007561974285170771
-0.01030958865359575
-0.01178396748010203
-0.01135874499154841
-0.01081852415658407
-0.01018047450119385
-0.01179703752207961
-0.01412197398478701
-0.3108349012485603
0.060802143768238
-0.01562574644922876
-0.01612712597770326
-0.01309689656120573
-0.01212842383446311
-0.008817845518932294
-0.09711890169005689
0.00988703394313302
-0.01362710585630556
-0.01464636013362515
-0.01076067363427729
-0.05299960302019014
-0.01018180067599961
-0.01372323534778019
-0.009550743488879215
-0.0003368170953014107
-0.009995451711270122
-0.0115426945521099
-0.02488317227534706
-0.01609256740452857
-0.01182003683069101
-0.01340318669300148
-0.007422698796907197
-0.01252332214833241
-0.01176643113016172
-0.0574278188603083
-0.01307088273331813
-0.01121841511039021
-0.008700018097844646
-0.01484071392053887
-0.01383489453585073
-0.01569401391798745
-1.376913063334689
-0.0984512756940072
-0.01338075102924029
0.02432748034046682
-0.1648093829524513
-0.09225047723648418
-0.01150048197881722
-0.0140307270627697
-0.2497031355672938
-0.03048941395267575
-0.02007687336888856
-0.01093453725729564
-0.01959029336655651
-0.01068977732388612
-0.03070534391840731
-0.4147961184961966
-0.0124032948044738
-0.01410646917245476
-0.004890079819396725
-0.01084465626503331
-0.01013185760826525
-0.0143349809677124
-0.008269515941867462
-0.02605811648136029
-0.01136945739514819
-0.1637406880750677
0.01713124805275994
-0.007706442617216172
0.003329104887157006
0.01361397870727586
-0.04732199210099495
0.02971648673162117
-0.01307033936911407
-0.1349946314790148
0.2821841681790693
-0.0071654127970975
-0.01330350358341846
-0.008418663327852662
-0.03284488251368549
-0.1225956624428223
-0.01261803803352559
-0.0123601588806003
-0.0167282081356609
-0.01361020063091131
-0.04093739496570539
-0.2145043305890737
-0.01126472618998358
-0.04134172338815356
-0.03992021512659295
-0.1661145580690334
-0.1651924743672001
-0.1363791190058591
-0.2480308511729594
-0.007239661811363678
-0.02128833124998405
-0.01404785171935977
-0.01254288085600768
-0.03283982563894335
-0.02441259171851137
-0.01448897151132301
-0.01499320758197348
-1.080717557941417
-0.006187584761553931
-0.0135810406144777
-0.01849154980639051
-0.0217465105939186
0.0006769075238934925
-0.01440574509556602
-0.02753924765170728
-0.1597999892947948
-0.01357307639660209
-0.0223352819377237
-0.01373667434891342
0.0003194620332985822
-0.1794465348509058
-0.01327774205476566
-0.1411459258793106
-0.01613569686364223
0.006905259922713319
-0.01466534749522926
-0.02307129555469267
-0.0155053666822241
0.004946815550255593
-0.2783463947665635
-0.02545270902432945
-0.01586485070878926
-0.001492118704556594
-0.009318083265761798
-0.0305423497425394
-0.01441035445527075
-0.02027665008153965
-0.02140952619083902
0.01447299063861405
-0.1006907144682986
-0.0221317376948743
0.009166517519065255
-0.05167085372667499
0.1607531064002121
-0.1030832596700592
-0.3206133125727645
-0.03098190419854628
-0.02535195750087675
0.1495102814354806
0.08030036668777292
-0.003371538305310824
0.04891697726831443
-0.0156254094691034
-0.0146149353010655
0.002215630776383717
0.01166691810460935
-0.06687600037986499
-0.005993585328995419
-0.05756637636296007
-0.02205131026516955
-0.01572886177112834
-0.03653664155785868
-0.03291247907794043
-0.006636520896932429
-0.01511585368170621
-0.0389903476188919
0.03799003070461303
-0.03890149305723302
-0.01365927982977621
-0.116391014103652
-0.0321056301998323
-0.03850164511720346
-0.6767784054763594
0.02031526625981423
-0.01074836953600846
-0.005495296429227347
0.1581710202986462
-0.08380490515489433
-0.03488627300226446
-0.246703962995208
-0.01677632245399503
-0.01661988673444825
0.06449577463824109
-0.1841696024806637
-0.2294235654128174
-0.1980891398603069
-0.6859814193120223
0.002645151005181995
-0.01918506120148914
-0.01703470215893651
-0.07840930610474615
0.1178639639657127
-0.02081911049134261
-0.2391255686260653
-0.03491035792725079
-0.006439759403478144
0.27819346011133
-0.01132167728127703
-0.09355743065487739
-0.1491438211891722
-0.004102938951931518
-0.04035021792187132
-0.05019905721402555
-0.2062334312823381
-0.008757141477148789
-0.04198214242872316
-0.002396854608014297
-0.5505051226548066
-0.198940350240811
-0.175890694360481
-0.02263437763138133
-0.006873757680852702
-0.05999199856966068
-0.05815828518812928
-0.01411463834454291
-0.06755076182554068
0.003359435356975346
-0.01839980784440455
-0.09439993611287097
-0.2673998547820053
-0.007214249596763874
-0.02649722949505352
-0.02212438973367375
-0.07422184226105087
-0.09098970948716334
-0.08778854048991599
-0.01189328889565696
-0.9267955200990023
0.160952054125002
-0.07880642040875308
-0.2558454855697984
-0.04256726755031537
-0.01050252141664302
-0.2541865197883484
-0.1852020482999713
-0.03303386822476921
-0.1286589079591746
-0.01950212355239878
0.5631199919449758
-0.02382287923170772
-0.2296315253706835
-0.02616232452797863
-0.005849415295271116
-0.01205113843854382
-1.25211490183753
-0.1823912310722428
-0.2330933451399893
0.00536288443439772
-0.03741843608152516
-0.2537545297688856
-0.06538449850865161
-0.05090524305296063
-0.1423809862217593
-0.1895711145799472
-0.06779571263155619
-1.22906290304209
-0.1423753736667405
-0.5199505780146001
0.07835337254984878
-0.006715626941657634
-0.02198956501499389
-0.04259641838101939
-0.0404465597427061
-0.02889158960615053
-0.1309624572679304
0.08004396785806984
-0.002222675126242237
-0.00982087658373066
-0.5806508075267561
-0.8638468750461272
-0.1852734346074935
-0.008378954535058467
-0.1387877273199831
0.001058462227170078
-0.0004245328929127928
-0.00173503848274715
-0.05992440504855902
-0.2386313522505283
-0.01338613288614402
-0.1248780570174521
-0.1559435595230427
-0.01323971239176273
-0.0358911824007335
0.02250352075416619
-0.05724195625341297
-0.06970466159140841
-0.5030488256709646
-0.2316843756468288
-0.08069849163695812
-0.07262940111181719
-0.01996518843094268
-0.1247134304991316
-0.1519481323359256
-0.07426013243672805
0.0227136142924656
-0.08441280263432294
-0.04808177317574788
-0.01489007639156446
-0.1058074966725508
-0.2723230697662536
-0.0568281752890424
-0.0185245107233342
-0.0003059568439267989
-0.009992293711435731
-0.01115645272081513
-0.2168671821273785
-0.01533539923087632
-0.2218914153330886
-0.01029584848398091
-0.06749427767003621
-0.00397767092382075
-0.02320633228296787
-0.3778388861622232
-0.9096568104461252
-0.01134643498191049
-1.048219121033698
-0.6136934370668791
-0.01062943932425391
-0.6575888116169288
-0.1772172804002966
-0.006002129611745842
-0.130954818617327
-0.0168443254082042
-0.1218864780440794
-0.06723546969724195
-0.07828800757056539
-0.00506398025225518
-0.002340182140814987
-1.338512908308331
-0.01122714432177068
-0.1812755498273746
0.0005100951593938814
-1.010786055984432
-1.23411540358335
-0.08136880645486558
0.01935098119511748
0.1643807305710617
-0.004564259992690994
-0.02305581841684384
-0.004179133073524344
-0.2532651633962554
0.3661329055820632
-0.04080005744479088
-0.2105780168476828
-0.01484935083743103
-0.6544815422509661
-0.07490260296210072
0.1907003066004427
-0.2838189824828236
-0.04968782381806193
-0.06866702717356321
-0.01588761988409079
-0.02177539098888735
-0.5753674923187174
-0.1444849828858112
-0.08546290410881173
-0.128805617203908
-0.5555844190496345
-0.04405866128238203
-0.9073637969997405
0.0003054789011639963
-0.237788804227257
-1.049861626585146
0.1669598640889882
0.2913329299306738
-0.1848000972006114
-0.1925761997246025
-0.2086196683647076
-0.06800475014768559
0.02210327085259264
0.04755972918467523
0.00331234256866136
-0.168046445720628
0.02550144004722794
-1.356769192530783
-0.08505687444250015
-0.4732895518026366
-0.3305652140444856
-0.2034924398042267
-0.1763743134164133
-0.01690125226263285
-0.01547679050579222
-0.1076853209758864
0.1719680177286927
0.3853847023235142
-0.2111954165029952
-0.1385787362246403
-0.2345980976882194
-0.06237669401892618
-0.1493662939341564
-0.1629174274318288
-0.1255545023985329
-0.1244028656858001
0.4655406241739306
-0.2689127913614737
0.4318810803159687
-0.599634128030471
0.07091402513938526
-0.2039455466657729
-0.06600881975240637
-0.07441275988146048
-0.8786403897620961
-0.2192664063845824
-0.1904067861135365
-0.3464390011691381
-0.4574514956777186
0.5705695525805971
-0.2081564734089962
0.0003872900190382959
-0.07042938395410911
0.3442231819964263
-0.03737193948944658
-0.1327303489025785
-0.1792850084076107
-0.06335269940053345
-0.01655558413023759
-0.1953969468539531
0.1948615822146613
-0.01289758076427376
-0.09612449494204295
-0.1694360998478779
-0.3159671134741314
-0.3132564784627263
-0.06404024478826877
-0.01031975054413708
-0.07924137961674023
-0.6538810987374564
-0.6705055134285877
-0.3386771185004437
-0.05757127969091638
-0.05181947582338992
-0.02551899764344129
-0.06754304626111313
-0.05770584010194262
-0.3584262646533312
-0.9578001997517189
-0.01056349940080822
-0.08282662342627267
-1.138111767706601
-1.032032071751512
-0.1055943057052422
-0.03868172435034824
-0.0699135118033897
0.3900297743039746
-0.3440008631410288
-0.04989282120974383
-0.5985322959493312
-0.1214455908578039
-0.2529610182057425
-0.2104723656115757
0.4740276672833795
-0.6276725786967524
0.0741262028410188
-0.02958690157734079
-0.5576542303649934
-0.05154560138480766
-0.3617363489481131
0.1074973497974028
-0.1899297262727944
-0.05968665912624736
-0.1390306082441152
-0.3615991475382809
-0.08720269881184363
0.5148507711272573
0.08551808161640577
0.4705778092926905
-0.1007132828092305
-0.1999787937803064
-0.5224678506898127
-0.1311806418457852
0.02678804120708051
-0.05344394846356237
0.102272634615223
-0.3061863480561238
0.2362969620290829
0.008058421616956656
-0.003317054419451621
-0.5133017521642015
-0.1855073430286593
-0.08061675834619673
0.5816260121255893
0.1385642782011303
0.3448718248368891
0.2257915400663385
-0.5615473078958515
-0.1977508121065073
-0.2231934980492112
-0.2324102734080189
-0.06019711754820638
-0.6943986015881061
-0.1931979566883101
0.3058749146012673
-0.1967160340063477
-0.01129146196868979
-0.1710650789713333
-0.009459954130661268
-0.1567595754913685
-0.4345343889602515
-0.07643444904610873
-0.1994345645134697
-0.07092415362058574
-0.08646983358998687
-0.1463288912390311
-0.07308878223876629
-0.4553983841574196
-0.4147186865628811
-0.02580901767175162
-0.07446372069402549
0.3281489009243081
-0.2465148924224956
-0.1848928984147627
0.5250814804921609
-0.2082400658664195
0.01840583083331454
-0.4489339589981848
0.0480018745685938
-0.06201504854454425
-0.1437837380793738
-0.5823450718220562
0.1608409558026865
-0.580627105815016
-0.5338243295111326
-0.1051503611411985
-0.5071329229801373
-0.03739306838481567
-0.1385745320791075
-0.4102135335082337
-0.01629758949799865
0.2869828948042009
0.4896804999240114
-0.1584623677592593
-0.007977427750762909
-0.07652064327874414
0.5253140051454558
-0.03344012990668584
-0.4382009831163352
-0.0328551801950598
0.4610202864234606
-0.0148182296381459
-0.5426981950293502
-0.2479167035233253
0.1763300076897674
-0.3096054771558084
-0.1784545299944325
0.05073540018869695
0.03363926707491418
0.05447635952323537
-0.298370616176344
-0.1582862201711002
0.4128075799227794
)
;

boundaryField
{
    FrontBack
    {
        type            empty;
    }
    Top
    {
        type            zeroGradient;
    }
    In
    {
        type            zeroGradient;
    }
    Bottom
    {
        type            zeroGradient;
    }
    Out
    {
        type            fixedValue;
        value           uniform 0;
    }
    circle
    {
        type            zeroGradient;
    }
}


// ************************************************************************* //
