/*--------------------------------*- C++ -*----------------------------------*\
| =========                 |                                                 |
| \\      /  F ield         | OpenFOAM: The Open Source CFD Toolbox           |
|  \\    /   O peration     | Version:  2412                                  |
|   \\  /    A nd           | Website:  www.openfoam.com                      |
|    \\/     M anipulation  |                                                 |
\*---------------------------------------------------------------------------*/
FoamFile
{
    version     2.0;
    format      ascii;
    arch        "LSB;label=32;scalar=64";
    class       surfaceScalarField;
    location    "1299";
    object      phi;
}
// * * * * * * * * * * * * * * * * * * * * * * * * * * * * * * * * * * * * * //

dimensions      [0 3 -1 0 0 0 0];

oriented        oriented;

internalField   nonuniform List<scalar> 
1171
(
-0.9278979211183402
0.9278979210936331
0.7873637136015585
-1.099129506973052
0.3117657938164066
-0.1906651607633646
-0.7669958405639125
0.9576610010426289
0.07210207584950855
-0.1176840834044866
-0.2122970080603239
0.3299810899680234
-0.7873637046925873
0.06933766440109716
0.7180260403111023
0.8109891887374522
-0.17785622239921
-0.6331329665881485
0.8739561541724643
-1.043985912820518
0.1700297586924445
-0.2851986903475248
-0.09826396629314706
0.3834626570772448
-0.03654025226865795
0.548804181578353
-0.5122639293943606
-0.508518768824835
0.8283555468612247
-0.319836777649998
-0.4028827666466804
1.04561302514369
-0.1716568696774356
0.3927921449841117
0.05076441817827669
-0.4435565656153759
1.04602069899343
-0.0004076725513973625
0.4451525069565781
-0.05236036813584763
1.05648351572077
-0.01046281662531724
0.5805259465649133
-0.7711911025078229
-0.7240316173385551
0.5566287997299367
0.1674028174612507
0.2138168243953033
-0.7223355992171188
0.5497349643126879
-0.9224597205591896
0.372724755167234
-1.094228035895407
0.6866296672602097
0.4075983687108853
-0.5955483360102594
0.5590080926253691
0.01708259413514263
-0.25559831771647
0.2385157230048898
-0.02259159053652485
-0.5246725909202176
0.5472641794497934
0.4001786498688628
-0.4984426109089312
-0.9189373716078826
0.9417042715264113
-0.02276689982407519
1.067845301345978
-0.0113617857992576
0.9349557106862356
-1.116761159872032
0.1818054490200224
1.067341116676957
0.0005041839259638527
-0.6643295148760295
-0.05970209837044825
1.262111474726779
-0.8644036582287576
-0.3977078165306241
0.1484037443446297
-0.1100054558124787
-0.3252905086126704
0.4352959648703521
-0.2854945067504442
0.1920500220549878
0.09344448508080368
-0.5836323111986064
-0.5154972000507551
1.014123200051658
-0.07916749095951976
0.009868109560506761
0.8255022545924869
-0.8353703640275344
0.5716885405937244
0.6904229357335872
0.4387987309702458
-0.03112824152739415
0.4313068903046415
-0.8080634823688214
-0.1025682083602036
0.9106316905607846
0.5022071574002749
0.2541163321477207
-0.7563234894898125
0.00589975474008063
0.5305950477312996
-0.5364948039885968
-0.4900222188442886
-0.6042058140456467
-0.42278095467644
-0.693980206205508
-0.0274009684223551
0.2708508009150638
-0.243449831191478
-0.9248427546111927
-0.005146192156943306
0.9299889468903524
0.3082953406884061
0.07516731895725093
0.7615890028416293
0.04940018220765331
-0.5329174618414139
-0.06263087385256276
0.04603103446029354
-0.8540945145193229
0.07685538107402666
0.8626712339250495
-0.9395266149096343
-0.3469386882859066
-0.04063887559524888
0.3875775646813899
-0.6821526200006256
-0.2426901280910311
-0.634194365678036
0.7110497470387906
0.6139138685280209
0.2144416728074929
-0.5433921618412998
0.9457628597258192
-0.7789613948508204
-0.1668014647285216
0.01122732271128088
-0.00523954540063239
-0.005987777664068792
-0.4034409674951888
-0.09500164356205744
-0.2414801548745189
0.8553940216558233
0.04866420665871361
0.3336578911639763
-0.3823220971110227
-0.4616908908483268
0.9638980436946151
0.6804241401183946
-0.7829923455088624
0.3186764943823198
-0.01490486211051726
-0.3037716298388429
0.9307091535817312
-0.9307091535477823
-0.7815276767014309
0.1113750363223629
-0.3236720399821099
-0.7499410136575492
0.7598091275664238
-0.09106892836060182
-0.1431253117221508
0.2341942413953386
0.8648678989909222
-0.03936563785425184
1.054587301359028
-0.8004709752059764
0.186773349579421
-0.3164330434390996
0.1296596932369762
0.858362757223883
-0.09677375635110994
-0.6113325993793693
-0.03923969501559765
0.6505722944722523
0.1234334360699083
-0.230357351608356
0.1069239143495334
0.8055339403035647
-0.9833901666970389
-0.4341319308966822
0.3290373448249225
0.1050945848724661
0.5335930450370553
-0.5561846357725516
1.021965109938966
-0.456235537485006
-0.5657295723643015
0.5991841566681823
-0.7192809709342931
0.06646582184472558
0.6528151493438017
0.1020392632806402
0.5696229837850344
0.05509695628799405
-0.6247199403146507
0.1949539452339333
-0.08357891857058174
-0.49204968682388
0.1451109983929759
0.05027122925822557
-0.8864329994984682
0.8361617701158677
-0.4739081636382388
-0.7131674946583479
0.04883798002863213
0.4369362084049668
-0.005629313484278965
0.3000997844244804
-0.8553017748266492
0.5552019903323058
0.4157608444905118
0.5842391553344257
0.5605833888480222
-0.5145523547065975
-0.3673407096438581
0.03987158647983022
0.3274691279737174
0.6812561194681285
0.2494530336480965
-0.5675279685068918
0.5734277228713046
0.1116457050289792
0.874871597158051
0.01024865444076849
-0.6215812510666054
-0.7490637223270946
0.7993349510886023
0.5303832950700748
0.07055261351557718
0.3006121884483832
-0.371164802399664
-0.1674648423954644
0.4453411351295945
0.08525392814107649
0.8738957096686465
-0.8045267917577477
-0.06936891793756841
0.6354082808595221
0.3103545805076052
-0.430841936731834
0.5739210914127322
-0.5033684758314777
0.4170493383315645
0.1326856276163317
-0.0467443336307874
-0.5915234295042854
-0.1393396223326585
0.7308630517681449
-0.1497195457867883
-0.7809896052775994
-0.6110399181692426
0.3601531275583907
0.2508867920655357
0.6219605235973263
-0.6117118684778521
0.2389121590218342
1.011650143915886
0.04293715686361796
-0.7490637254773475
0.2272076048191984
-0.2159802851851122
0.680424139524812
0.8018315335893651
-0.8018315334321926
0.8375950219472746
-0.8330723447770843
-0.004522677241871795
-0.4453369895523588
0.8610978391590408
-0.1473401888157581
-0.3447094945030916
0.7347693541306483
-0.6685767976820375
-0.06619255639212727
-0.7363707794664365
0.1448473488400932
0.1391573752669383
-0.6720748380226584
0.7829923438178427
-0.9504571861504579
-0.3677752686197484
0.2869658610825839
0.08080941267527919
0.1457031835109094
-1.01008875931922
0.8643855757618647
0.4807876106103963
-0.04198887953242844
-0.3080651884603605
0.5862302605099069
-0.2781650722768557
-0.7385900541265463
0.8842932392705745
-0.1570008687468204
0.7317692481117423
-0.8384598401622996
0.1066905923810672
0.9770110252175498
-0.5391942386317677
-0.4378167864067529
0.7550871966078598
-0.06495244885608863
-0.03471109330884677
0.1847890694573298
-0.1500779761979388
-0.7757983714738598
-0.8390167865639806
0.0720209510912929
-0.7499410110736653
0.5138278115018542
-0.5544666834536672
0.0999737425583364
0.7161937619275834
-0.8161675046415173
0.7535864092060954
0.1743114996686951
0.5029312655694619
0.4970687344565196
-0.05440113708562373
-0.611255911907672
0.6656570474854167
0.8802985913875286
-0.006402885247366119
-0.7550871966341897
0.7993349503717311
0.1916745428241062
-0.4472728631694547
0.01250207653875023
0.003610449496642509
-0.0161125310520076
0.5890060550371369
-0.4373593598174197
-0.1516466960924746
0.7180260338465601
0.01076936889490273
-0.1072475403465508
0.4386443806653226
0.1503616745203127
-0.01575521701538314
-0.007502043714737811
0.02325726137843904
-0.03146845279591516
-0.003242635164482986
0.2459667760010533
-0.2608716440641461
-0.9588324022130229
0.001561387406939514
-0.1594974518370566
-0.1218084821604582
0.09461859403057479
0.7224178827848283
0.7289373901265412
-0.1446982352094991
0.6730597690901376
-0.5730860258414666
-0.2119261124780827
0.3986994647508817
0.6956528971080865
0.02237313678985465
0.2418331610225238
-1.074905507037088
-0.9504571867175485
0.302666031169819
0.7598091318898832
-0.2093615912055999
0.06623628167190372
-0.7239792694737981
0.9105621292747633
-0.1865828597102486
0.4157337312001133
-0.02815616117982929
0.771209319220729
0.2807190302532184
0.3768471563064693
0.0683053557157267
-0.6587146188781785
0.6587146188979658
0.2147821676889669
0.6958495246247306
-0.05646111675317547
0.3901189964805182
0.3788348475830887
-0.01316470618049135
0.02566680623814315
0.4482715133693396
0.03251610098466964
-0.7385900536320803
0.5339652147601095
0.2008041392684483
0.2998616172516338
-0.115072537806442
-0.69565289639345
0.1796003343589404
0.7309617940926454
-0.01024519778472321
-0.8135940507736173
0.8238392485416868
0.6964237116230024
-0.7919478397357982
0.09552412795800985
-0.7535864054503181
-0.1509191988156249
0.2122529112139396
-0.0613337116436057
0.07754027908871917
-0.1782187696441001
-0.1130580237641399
0.2912767911473187
-0.006434723250200304
-0.009320482139601015
0.7063964447023933
-0.7166416348089923
0.8871879733545607
0.07047303124116512
-0.3133700956672181
-0.5221259742513582
0.8354960698658145
0.1037914571303627
-0.1037914614488907
0.3268374497835941
0.4747239225416399
0.6131663553452251
-1.087890277789495
-0.1940795586250146
-0.5855541518174219
0.7796337104060893
0.01333718565908972
0.2208570538220624
0.3761451038810854
-0.2527116738665522
1.016192239410056
-0.5414683198032924
0.6688111600945396
0.9927834897982015
-0.3796171376575858
0.2288049169983324
0.8842932405973687
0.7126363716506177
0.2139198519947166
0.727784418529326
-0.7809896052426654
0.3412853797765177
-0.2836023484496233
0.2596593015437493
0.02394305160208943
0.8491769216062157
-0.002020227458179202
-0.8471566944838737
-0.7021735551510973
0.7026777383408216
0.5546630119576269
-0.7021735545686576
-0.7126363716169951
0.7026777388705798
-0.03393493086289398
0.9092391114691484
-0.02205113553659589
-0.6812561295453379
0.612250893923684
0.06900523564946957
0.5385113973380967
0.5380796883210539
-1.076591085712754
0.4869388045212279
0.5292534340055578
0.5477786170677585
0.4572988771774111
-1.005077494284843
0.4921998544912786
0.500583634061821
0.6122509008401628
-0.5256500043068832
-0.4665215514497352
-0.5563700161865232
-0.5135850686368142
-0.1222660752437897
-0.01276963917201324
0.01276964013870257
0.5104894761991096
0.5245081310728591
-1.038093199793472
0.5718222134000104
-0.2712100236914129
-0.8832645368432963
0.3440702990820192
-0.6328939852837235
0.3902038589638906
0.000642828430213776
-0.8254678975150638
0.8248250692977277
0.4208722147476412
-0.02458230302246816
0.8737592246009738
-0.9475644647804113
-0.8331732064032035
0.05537754051252008
0.7777956661300975
0.559723181601973
-0.4391147610915981
-0.1206084206932076
0.6502664963705
-0.7294339872721123
0.8879535709633222
-0.8270399179741287
-0.06091365263475561
-0.01467556767831558
-0.789851227335149
-0.1111515086330858
0.7127295061072828
-0.6015779975085791
-0.9409294415663418
0.9262538738315726
-0.7283771248009984
0.6887044776475318
0.03967264728081731
-0.8041974036764803
0.03029712543069649
0.7739002783505867
0.06196816135152931
0.04182329831873988
0.4327854188424375
0.05961089834388217
-0.8507337714386691
0.7911228730341601
-0.6462768781005702
0.5918757450744762
0.8883079895860911
0.07357465146368755
-0.9618826409260945
0.05513478655381723
-0.05036230177033791
0.3778314335999562
-0.3819829521807168
0.06554990984265381
0.8406611173801808
-0.8400182887124914
-0.7337243671847199
-0.8157846089568256
0.02593338179431447
-0.1659147678114068
-0.8488820345848148
0.02184211374954171
0.6216865337815847
0.05137323631870822
0.02436621548833457
0.5353569685507019
-0.8150338358634328
0.8453309645240619
0.565729572510134
-0.8500501996429208
-0.8673547879494637
0.04188432824982714
-0.02700106050545724
0.8343660684030169
-0.8073650078041532
-0.02405696555397854
-0.7607254268438266
0.5442847437951542
0.1521389772642144
-0.01933223398103159
0.8930914586391014
0.9816314161713768
0.8620955588053009
-0.8402534450202109
0.1479409915338193
-0.1479409924436204
-0.1175402497889934
-0.4660823663660291
0.02696760499080931
0.2706764018259504
0.03198962974182428
0.387616530364892
0.8690344942145737
0.009404733588701905
-0.0158394564839988
0.6585841346135508
0.3414158653920584
0.7836503028778866
-0.5836323131866641
-0.7780978374059765
-0.8093852332556223
-0.6799108380719362
0.6799108381015346
-0.1682463385891029
-0.1554257010104137
0.6023119527317411
-0.811436790914086
0.209124838227924
-0.4940967324204006
-0.568860943131561
0.2779711534133103
-0.9719513596877783
-0.8990376982662999
0.8381240421027915
-0.8153277583319025
0.8412611411021863
0.6485531840582164
0.1342367716962627
-0.7827899557984738
-0.7697125873052831
-0.1464818348785934
0.725117420755554
-0.5786355860140444
0.0300032063667113
-0.01158728062690505
0.01562236915099876
-0.004035087701469658
-0.3527080332125976
-0.1133743266023997
0.8802831090180254
0.7449204428541996
-0.2425715172581416
-0.5023489267069171
0.6243120324913971
0.6857996432000187
-0.4710174748130309
0.0001105202791018183
-0.2856050254818049
0.01159967826079974
0.751054651823485
-0.7626543296842787
-0.3233981728985478
-0.07284915777730035
0.07646845071773621
-0.9674224662570866
0.1202657721798375
-0.6772000150360875
0.0540575776890551
0.6396255256841159
-0.6936831034295464
-0.7560503945043497
0.07885037950822994
0.5889399538656704
-0.6617891115599293
0.1572421574579307
-0.3354609243016041
-0.7716387323119042
0.001926144849689285
0.3710756155586622
0.5996538183935799
-0.02573272459504953
0.01899932782760311
-0.01899932692715394
-0.02027167562277615
-0.04957234140214947
-0.2340300084305848
0.02711131429750768
-0.01770659743716272
-0.7202654961727796
0.2793137473034653
0.6794884186138441
-0.6890256997020193
0.009537281329153987
-0.5941328723761435
0.6481904454126698
0.6544815903430469
-0.06554163159241735
-0.6305891133040022
-0.1254612863396081
-1.050466747117357
0.01111814977388384
0.1368228462978649
-0.708665818339441
-0.7417406315518539
-0.7638477336855081
0.3661399183905347
-0.4053740000566078
0.4610736247457258
-0.0556996234592009
-0.6641179434153526
-0.04454787485830019
0.5006814530274972
0.7306862156768947
-0.2360132767710596
0.1142047937132845
0.9654963223768706
0.446786573579934
0.1322562033215368
-0.5790427770265075
-0.6765158940790504
0.01239795201577639
-0.04455639653684422
0.0329691198619203
0.6367602922014209
-0.776099914382386
-0.002077668746182735
0.002077669178978326
-0.6007370983993299
0.6496036581231536
-0.0488665600974886
-0.6521496807132323
-0.1135812311396615
-0.671624381801505
0.06048861257311496
0.6051684326348868
-0.1375820070870277
-0.8181062152559481
-0.5733444040244626
0.5705352344259745
0.002809167261780323
0.6283420086454052
-0.6188047335164463
0.3225393964481809
0.213637723291613
-0.536177119706876
-0.1049803360075603
-0.6016986506137185
-0.09198445453750759
-0.1539505204331517
-0.5128557861697366
0.404234789965377
-0.4992364359207513
0.1264962448906496
0.6786648696327807
-0.8051611143342121
0.5991841566674386
-0.3701728739427846
-0.03520112455945306
0.07201369504950061
-0.5848694896497491
0.5513435538642097
-0.04054191311859622
-0.5108016407657867
-0.3132096136326594
0.3058295913838271
0.007380022447948445
0.4524490696705498
0.1193731449215548
0.05278294184283831
-0.3166159934756232
0.1576377347364178
0.1589782588232693
0.2385645819365093
-0.01135697237811007
-0.294027747551005
-0.3105782835052805
0.3498988632721871
-0.03932058022725939
0.7890769335014949
-0.6266007178247972
-0.02554896373848633
0.4993059934769112
0.2848458382795068
-0.5274173479327701
0.5774689260807846
-0.5774689260784305
-0.2897602901657087
-0.5864749756083534
-0.295570276579401
-0.586474975578692
-0.5957427173444022
-0.8384845862930841
0.1699077871448849
-0.5996330966465965
0.8211415794318672
-0.003123128955753938
0.1175852911773879
0.4820685281040398
0.09679182685052753
0.18606841169065
-0.03643062839988852
-0.1496377808526071
-0.02909787265904066
0.590463424315439
-0.943061842270266
0.4209358660935159
-0.00847789925767831
0.002925056081841851
0.005552845581832047
-0.6441772168763793
-0.1320319677871592
-0.4679485317142903
0.6002047361238927
-0.5034762078809545
-0.3229851431719086
-0.2618843256955626
-0.2717820049374228
-0.1114209847896706
0.1114209842585037
0.1533437601127226
0.05890915632133384
0.1971865631966954
0.4497166371572456
-0.5700343677371416
0.1020858338291008
0.2511814148406627
0.4665003687991635
0.533499632117382
0.6446586805145478
0.08635492094382415
-0.00217244509525258
-0.08418246774025469
-0.2771441531639597
-0.5409620623529577
-0.5488375096687772
0.1149143509603132
-0.1267323619335023
0.01181801139762781
-0.105468868637648
-0.3852514061537457
-0.05052580684632257
0.655694260637254
-0.4993396263472882
-0.1448375904334142
-0.3282246934677979
0.2866968972653074
0.1292850467581123
-0.6176338991755124
-0.2046769703107015
-0.2631545358011996
0.00228290544431439
-0.4213292100126919
0.3235464863570456
0.09778272441329439
-0.09399359499357417
0.2917425780494424
-0.8959483907050243
-0.4573171178780163
0.6265963879955671
-0.7732834707725915
0.6683031347970895
0.3397566988120884
-0.1243335962509089
0.2237244631396762
-0.09939086794294211
0.02938571094013597
-0.5862361576652524
0.0287045992506816
0.5575315580235388
-0.9005940072406485
0.5479661353854864
-0.6655063849854798
-0.1049378028816635
0.1097571071313738
-0.1097571107161406
-0.3165054724839672
0.3584390707650776
0.01939235676670917
0.02595907150944372
0.06039584850312422
0.5046505716292595
0.6669544165628339
-0.736323336737577
0.02956950461135739
0.01999425383263258
-0.0009949405855878624
-0.006830440962665924
0.006830441156178423
-0.4114722892261868
0.530845436247367
0.01582662144411744
-0.01582662125568182
-0.7926413546713983
-0.06088565585883114
0.1228538134771642
-0.4549326926038312
0.5570185282537629
0.4515249403744136
-0.5003914956249964
0.1503327054066316
-0.1503327055990233
0.03647911032089179
-0.01081230517897276
-0.04229747645837188
-0.975228530820319
0.5374117462366773
-0.4671719206203512
0.04182329792876217
0.5152079943951091
0.03055840624355294
-0.5457664010251281
-0.6165391029144248
0.117199479195027
-0.3289896152273406
0.01357595267155141
0.3154136622832492
-0.1556266635818443
-0.08038661304013282
-0.5410511435112347
-0.04518500476785133
0.1368228448204707
-0.04027349785490893
0.0381958234012464
0.08071448397385381
-0.08071447881229872
-0.5256294012797772
0.4863088109334898
-0.4149572475713552
0.161303122511936
0.6223471804389398
-0.09697424687747101
-0.003376932659028242
0.003376932246168738
0.5329661894806104
-0.08227692914028498
0.00596564770204873
0.02706573848748806
0.03499286233344895
0.6868824564325888
-0.7691593859144268
-0.6559821037086613
0.6304331449066219
-0.1087328139699072
0.3140794801759567
0.7455577236946321
-0.02027167338821375
-0.2653770869150046
0.1503045566425236
-0.7445888018247276
0.4837708327493499
-0.4277991156503779
-0.1013310939843652
0.003233604865099634
-0.01440764182664153
0.02493888336593771
0.4113509507006737
-0.1215315707017705
-0.3892700708220902
0.628937499581218
0.01960008297976974
0.009200854256136299
-0.009200853525790509
-0.3507805059671759
-0.07591275240927729
-0.560222841184262
0.5570997118708919
-0.2373916078469859
0.464698702127668
-0.1508491289372097
0.7313750784406394
0.6693137981815042
-0.04027349826708065
-0.6177938503359688
0.5620662580831909
0.2831533598205803
-0.277926764234236
-0.005226593597081804
0.536439555476528
0.09343586220131936
-0.03892665739600214
0.1959242479697016
-0.1569975897282954
0.1196411546642721
-0.119641151331858
-0.8586212317968871
0.002391703468874762
-0.1136076438630215
0.1406733807615496
-0.131450556438525
0.1314505559934411
0.01999426829222221
-0.02364861814517197
0.6699885286579719
0.06097326633776134
-0.3225494103479175
-0.06270199449897933
-0.471270696894276
-0.04507133800284659
-0.1511923135514225
0.1511923134953366
-0.04770334337120202
0.14375957550037
-0.1437595751002496
0.1361091747488069
-0.1361091730305707
-0.3162371686983929
-0.1146047678774676
0.2258921452196208
0.1031451994756846
0.03478197636612382
-0.8212202805166345
-0.1984676650499017
0.1698396536372923
0.02183488666827345
-0.2640870360065081
0.1262833477306926
-0.1262833473750122
-0.4143525093905611
-0.08488392516318487
0.2356076392501444
0.002908081383899832
0.04044098991550101
-0.5445896243342679
0.5785245552000727
-0.03653697507194709
-0.01116636266786924
-0.02471513203673121
0.01390282305044131
0.006573111525927647
-0.1848745953016067
0.1783014841547715
-0.108393222410202
-0.2270676972818503
-0.1442993523463407
0.144299352009392
0.07236958954353821
-0.07236958993984519
-0.01890444945621614
-0.1085272380897903
0.1274316872213304
0.2343365435638791
-0.1835499180365879
-0.02553442413664524
0.02453947248447907
-0.1294144398969612
0.6157232467564004
-0.03905139382279238
0.4276040996816914
-0.04265605567237814
0.06591331817294993
-0.1529253784908434
0.1529253790147574
-0.6368017714716534
0.3079896443492366
-0.0791847261663699
-0.2339920039284568
0.003634652104762521
-0.1208893620356003
0.1613303533526191
0.1954692739384646
0.095807518471671
0.09651295951912732
-0.06152009819673435
0.07324713173684914
0.04166721343637039
0.0642204991730532
0.1056191588031887
-0.1001862576239252
0.2143910542581332
0.01127853337738632
-0.1178928444279001
-0.1001352975368742
0.09592308932992163
0.004212208091428244
0.01079340760871378
-0.02305598047163341
0.03731173196280872
-0.03731173207317628
0.07503488821774164
-0.05541856633299115
0.0554185665505864
-0.2243452163409301
-0.05197952022303491
0.01176517437013319
-0.1030974714189742
0.01646803353887915
0.1089037832951799
-0.108903783153443
0.2932520023310097
-0.2707499402453103
0.1623567171114404
-0.05089007781150937
-0.2198598610691378
-0.01678065401868317
0.0167806540780163
0.3676541633116964
0.2851609841647242
-0.5281632833184409
-0.09392506267816199
-0.03280730426933721
0.5289572810495881
0.2096213907487447
-0.1695695717523246
-0.3799428477113479
0.07655277758513332
-0.1471018848648994
0.1866874932804089
-0.03958560859085037
-0.06723658270711459
0.06723658298175084
0.8221105012957139
-0.5603333217127113
-0.005184315163025643
0.01597772635300361
-0.02002957447970466
-0.2874576659638758
-0.01747623571787791
-0.01284879363269541
-0.1322313800277252
-0.5723485667200654
0.5561546254622144
-0.568907767962503
-0.006892964784977773
0.09981324589197767
-0.001733058515955354
0.01681620075716227
-0.1671314625318825
-0.3360372383899088
0.232939767106447
-0.05396231436652282
0.03505786322082054
0.1322080291826224
0.1736215632301105
0.3425451923499988
0.2757712328345305
-0.2775042913201561
-0.06193948128089647
-0.1552496318770219
-0.2204160545789077
0.07449337651175289
-0.01027287685362225
0.2134027069372869
-0.1965865065724527
-0.08626155718558863
0.1595086937738889
-0.3552700414624531
0.2078876609734082
-0.1914196279147684
0.08960963864464742
-0.4788797044750203
0.1738386973560659
0.1708416686324963
-0.257103225698639
0.07345697996841684
-0.1949708025956944
0.1774945673370514
0.01737954975332002
0.1421291450553889
-0.03959194101673186
0.0656186770636088
0.4673475130001771
0.02053106806831757
-0.08610934179159511
0.05415488789790722
0.1262657344274369
-0.2600016661672797
-0.230942649950385
0.5597373499853004
0.15685646891464
0.07875117079157092
0.07454810865307571
-0.03105540710241759
-0.005661532385633533
0.000434947092016757
-0.03260727451677206
0.1705803812279235
-0.1774733463373417
-0.06117046141428751
0.01935517582625516
-0.1472460768125859
-0.05284166005545609
0.1532205910961863
0.2770369317970899
-0.04018614953835118
0.008241292030941936
-0.2552238669683266
-0.1323661370376223
0.236391578056615
0.1783701557379534
0.1296194893029513
0.02198307402792277
0.08838029294817731
0.05240628486866903
0.4522442868570846
0.01549074232281774
0.09812496341437771
0.04288014638250643
0.07239923837430484
-0.1152793841747073
-0.2430022980388282
-0.2003532357633582
-0.01950662873529204
-0.2018427693587844
0.2747304901222778
)
;

boundaryField
{
    FrontBack
    {
        type            empty;
    }
    Top
    {
        type            calculated;
        value           uniform 0;
    }
    In
    {
        type            calculated;
        value           uniform -1;
    }
    Bottom
    {
        type            calculated;
        value           uniform 0;
    }
    Out
    {
        type            calculated;
        value           nonuniform List<scalar> 10(1.034717422484759 1.064161401925365 1.022891567637628 1.02145328944984 0.9953785656130718 1.014168702868724 1.03499760814375 1.06295767561206 0.8672292206352682 0.8820452521545187);
    }
    circle
    {
        type            calculated;
        value           uniform 0;
    }
}


// ************************************************************************* //
