/*--------------------------------*- C++ -*----------------------------------*\
| =========                 |                                                 |
| \\      /  F ield         | OpenFOAM: The Open Source CFD Toolbox           |
|  \\    /   O peration     | Version:  2412                                  |
|   \\  /    A nd           | Website:  www.openfoam.com                      |
|    \\/     M anipulation  |                                                 |
\*---------------------------------------------------------------------------*/
FoamFile
{
    version     2.0;
    format      ascii;
    arch        "LSB;label=32;scalar=64";
    class       volVectorField;
    location    "1715.5";
    object      U;
}
// * * * * * * * * * * * * * * * * * * * * * * * * * * * * * * * * * * * * * //

dimensions      [0 1 -1 0 0 0 0];

internalField   nonuniform List<vector> 
808
(
(0.7562639820860972 -0.01752018507929407 0)
(1.031237137761233 -0.01248998749210663 0)
(1.116182914265765 0.000314490398843133 -1.79352434246576e-20)
(1.085128937280663 0.01257741850604829 0)
(1.361082344794391 0.01492564545574996 -3.86887812501779e-19)
(1.038646999180833 -0.009378524037540517 -7.195977660978614e-20)
(1.013915272995466 -0.02025963618921052 -2.353245563739553e-20)
(1.078629750386891 -0.004713676970204402 8.93709459511291e-21)
(1.252217178171809 -0.02042877108078781 6.31803117767589e-20)
(1.08458133063347 0.009009178910311414 0)
(1.011774910924047 -0.01220172745411785 0)
(1.303649564387328 -0.05302671855556244 -3.514171900599258e-19)
(1.086075145044704 -0.001561842033517754 2.031584340992002e-20)
(0.6750482834435452 0.006410736838932952 0)
(1.282549780794425 -0.1218491911145478 0)
(1.081826422916339 3.697164120770268e-05 -3.816905695914554e-20)
(1.231720978898091 -0.1532485139218801 -9.984877918205994e-20)
(1.074367465297885 -0.0001705444032383792 3.162564807727419e-20)
(0.9912925267825543 0.006732069094089931 0)
(1.026895058997453 0.009109696314359084 0)
(1.040236635745068 -0.01508271803674522 0)
(0.9875225679336549 0.04509418222902047 0)
(1.051053184115327 -0.006203801732411162 5.639842825674372e-20)
(1.053549778186789 0.008280042731314441 0)
(0.9335927472083831 0.1994582789349242 4.586715477592974e-19)
(1.163595682530002 -0.09089958608252036 0)
(1.184337307365121 -0.01914348501578214 1.565767569707801e-19)
(1.077230349752913 0.009498688764620374 5.213449364092693e-20)
(1.084190919874433 0.001853728121201651 5.075300062765793e-21)
(1.072045406341536 0.03098439187577449 0)
(1.075586780355242 0.00250068643165693 -1.177023509820702e-20)
(1.033348443720749 0.006236108484217859 -1.9213197868969e-19)
(1.059898228664166 0.01473744887880269 -2.391266166623793e-20)
(1.088915085979465 0.005223791607770937 -2.928989744952169e-20)
(1.120079088703413 0.03668411505346393 0)
(0.7549913978698978 -0.1205934402746816 -4.544498795328027e-19)
(0.9543799522549022 -0.005743323926984848 0)
(1.068975675093988 0.02247047792279751 0)
(1.068841553639209 0.007266218314385479 0)
(1.073651791828564 0.008724137316107831 -2.827130175020898e-20)
(1.092442665683772 0.02270512592887964 1.096543644755265e-19)
(1.149553483912156 0.002564751704574602 2.149870557167888e-19)
(1.095582128877115 -0.00247682095457896 0)
(1.015720310585318 -0.0092824645780815 0)
(1.128415600968152 -0.09819539346509013 -1.662075186500023e-19)
(1.044065706902311 -0.01178339261620573 -8.115247829327484e-20)
(1.058432951828119 0.02668838015302486 -2.799264169286502e-20)
(1.22941957481538 -0.1116648201584053 -5.607851657394656e-20)
(1.067718835880141 0.01224722999957211 -4.184823246183274e-20)
(1.255344600622376 0.01655678700307114 0)
(0.9970644100898165 -0.01808088416214075 2.09496879784328e-21)
(1.044563324388853 -0.002492727767824398 0)
(1.087331087207901 -0.00237637749462853 0)
(0.9975737309602065 0.007386160789240207 -1.90413048423458e-20)
(1.252628210318409 0.03347023652863257 -2.350273208922288e-19)
(1.063800019036792 0.01842187548102319 6.036962386982418e-20)
(0.9883825460081901 0.009384255228411209 0)
(1.016426720152484 -0.01095553324580157 2.478383183879228e-20)
(1.106740541965521 -0.001327139981789001 -1.178604237280756e-19)
(1.061771709542502 0.03123255543585002 0)
(-0.06536412905000245 -0.02501086817969387 7.23124250894562e-20)
(1.153766571850189 -0.05184281061342923 -1.88519543862015e-19)
(1.002078293377953 -0.008418775465069514 -2.724050415151007e-20)
(1.184254770659291 0.06512712040324758 -1.210780295425509e-19)
(0.9977425244871382 -0.01066207875227091 3.017384315090126e-20)
(1.083814721302149 -0.005535859586829268 0)
(1.243236324679638 0.0937881403871801 0)
(0.6960202479059023 0.003181553052263711 -7.484104498030618e-20)
(0.9896982241848101 -0.01571545762857638 -3.142946137359339e-20)
(1.457471005276555 -0.0178306812378078 4.455757174548971e-19)
(1.060675628872732 0.00755560267214422 -6.70847193932953e-20)
(1.36476458864341 0.09665878689023105 2.894787395604239e-19)
(1.054797910498269 0.00674695846934324 -1.854313605813373e-22)
(1.081111101153861 -0.01414358075247027 -4.547659096737492e-22)
(1.163056407442481 -0.2349633199566512 0)
(1.022639796848267 -0.01451617889410525 0)
(1.017988436721504 0.01768334630322648 -3.080947768754783e-20)
(1.388863707481139 0.3500767824292129 4.19545829023326e-19)
(1.097095254641932 -0.04201873632636031 9.375627016522695e-20)
(1.046499198195995 0.2109303930392932 2.473505187095742e-19)
(1.123860607253 -0.06337837146473294 1.163815411331711e-19)
(0.9221484165889456 0.005187802124494519 0)
(0.9755229848835987 0.0185930659814484 0)
(1.004028996401258 -0.04862846179904683 2.920856243099479e-21)
(1.010909148164908 -0.0133698015285565 7.489138711228245e-21)
(1.031124258226765 0.02580519087291743 1.381538450142892e-20)
(1.526454818664241 0.0361977974571552 3.253688413862491e-19)
(1.291448018219072 0.07107149802046137 5.542899310090551e-19)
(1.072704697429674 0.002885924276442083 -9.06017567329552e-20)
(1.197773593530292 -0.09881320368300642 0)
(1.033923187819481 0.001481640060442814 1.320870194280753e-19)
(1.163419142311408 0.02086352757050557 -3.178213197669604e-19)
(1.001502622272073 0.03244566896202646 0)
(0.9996299751945065 0.001983236166939484 0)
(1.04421400989568 -0.0003699072556985708 7.814717377837134e-20)
(1.211165550358398 0.1020284392972754 4.002590457626313e-19)
(1.011115309564943 0.006943846104479979 0)
(1.088160893274898 -0.07140782091502995 -1.06183133843074e-19)
(1.149431640409934 0.03553842077052937 0)
(1.20995254781554 0.09068010979314538 -1.88971842023265e-19)
(1.108123923581259 -0.02860715821195336 -7.672814874833188e-20)
(1.027997765896933 0.01160093698502569 0)
(1.08548051322441 -0.004671331889110731 0)
(1.020208537308177 0.02569997793077406 8.021535067331321e-20)
(1.075119450438486 0.05372740116373838 -9.16087729057342e-21)
(1.103646184334831 -0.00438627101319854 6.303528910110152e-20)
(1.10522290635793 -0.09652076006267633 1.547355486023633e-19)
(0.9594320830736094 -0.003492442676779446 0)
(1.066563566777092 0.03143433518903145 3.794449269658905e-20)
(1.167585127436515 -0.07610786381326565 2.303831823934799e-19)
(1.053934991855283 0.04509658780573579 -2.890127863229997e-20)
(1.022856410998461 0.06785792315020628 3.699764845776185e-20)
(1.090697664006828 0.02625803870097099 0)
(1.012092544949008 0.01540896506938073 0)
(1.028967266158045 0.009423149127017779 7.903459829907774e-20)
(0.948655863245027 -0.03250213391790144 0)
(1.053358219275692 -0.005608532035788828 -7.699784330226347e-21)
(1.339180389058173 0.05857503895451074 -1.573613231315521e-19)
(1.079807428929317 -0.01334887391009734 2.588997237845871e-20)
(0.7441988681606393 -0.001790825069935702 0)
(0.5313931702689478 0.1535242849602624 -8.911109539453253e-20)
(0.7058185601227799 -0.002515555111796677 0)
(0.699147430106507 0.01467745481209468 0)
(1.077820993860226 0.003460531800327625 -6.641712761873224e-22)
(0.9906352103768108 0.01444855003787854 0)
(1.280729083795612 0.1228183675244077 2.510034863210315e-19)
(1.012259932189703 -0.02795591450444196 -7.657575315354304e-21)
(1.038680303371302 0.0198116332036625 1.328400842394776e-21)
(1.058371228950522 -0.01226491289213749 0)
(1.126370226719105 -0.009260885912827265 -5.024399551405007e-20)
(1.256487264844226 0.1270866761301781 -2.159479499410563e-19)
(1.088810286463293 -0.01102658003192248 -8.48347546694639e-20)
(1.070557723921283 0.02505251135876327 -1.086919667684634e-19)
(1.040998657572697 0.04674855542551137 7.109425700304272e-20)
(1.022293814400852 -0.003553299585963173 -3.446926597976811e-20)
(1.061429278228964 0.02363140573873036 5.930721930806338e-21)
(1.134858692704308 -0.003534217179425895 1.07186226298372e-20)
(1.041282573840124 -0.01281248487585833 -4.674251581995718e-22)
(1.087784295913639 0.03483848534490711 0)
(1.028733178336053 0.01328784054536591 0)
(0.7877802979598724 -0.06873715703017418 -1.848929679582505e-19)
(1.030241434843187 -0.002109671681704622 -6.747590638648405e-20)
(1.137629505557257 0.001072708249892371 -1.313795125682112e-20)
(0.7035494597658647 0.006551387370505031 7.315645343887012e-20)
(1.176160668639715 0.01934433740715424 -1.935199411837441e-19)
(1.126863925417656 -0.004313276993176415 5.816674565087934e-21)
(1.129042119179991 -0.01010145015759178 3.426019716833277e-20)
(1.000939137948576 -0.002982467868474476 -7.17715678933677e-20)
(1.093844995525242 -0.06248069413732794 0)
(0.9860517273627802 -0.001049048026963364 0)
(1.058013229876127 0.007060961835700761 0)
(1.006034187167303 0.1894275829488519 -2.418734356252215e-19)
(0.7795392509242515 0.0124192521244704 0)
(0.8569680692212174 0.1030440385502297 -8.327712837901545e-20)
(0.09944298572693215 0.03896384525740137 -3.064444766022148e-19)
(1.173367709875802 -0.03186738276356452 -2.250790065005073e-20)
(0.671263074247994 -0.0073623705364879 2.439475789775147e-20)
(1.16486018684274 -0.1065595194442172 7.006842914376095e-20)
(1.128219393896254 -0.002307610645467707 -6.161791162605902e-21)
(1.15528399816152 -0.05060093086886176 2.187222730139379e-20)
(0.08209520149998399 -0.1926962157430943 0)
(0.2684965468929966 0.07539962075645198 0)
(1.252790581571418 0.1077115283349465 1.881086575399086e-19)
(1.021622245662478 0.01987625662728271 0)
(0.7375687153543082 -0.00633292677359851 0)
(1.07494041279884 -0.01182038293950747 2.697718369896734e-20)
(0.9752610163469532 0.002834913953077596 0)
(1.286104826239662 0.123976793203561 -1.473048408228181e-19)
(1.057423893180294 0.0111806203820254 0)
(0.9925809899473291 -0.008286661390636265 0)
(1.065302211112338 0.008017708469824381 0)
(1.006224557743548 0.02087007521209384 1.954099032313767e-20)
(0.9224460826717308 0.004350661408728996 1.198992294588761e-20)
(1.175460335384433 -0.1988850371808031 0)
(1.005009891404387 -0.005230981389667494 7.836791899910155e-20)
(1.059221632332937 0.006160420563421273 0)
(0.7745640175603249 -0.003352137266317076 0)
(1.215398890058514 0.02705094840882053 1.644242212584531e-20)
(0.7051245914831227 0.001326600070165249 0)
(1.432190080187215 0.08780217060847044 -5.238827917492275e-20)
(0.9934772611104401 -0.006251542935720272 1.664136141752469e-20)
(1.275884979171434 -0.002968735041414629 -2.957884177094436e-19)
(1.060039880075701 0.008770386031700357 1.363314187428381e-19)
(1.000897024111539 -0.0135933137070831 0)
(1.215938618262239 -0.155133658935362 2.033330139902927e-19)
(0.73317307669632 0.01379137673269809 0)
(1.097987574165673 -0.005102076500658229 0)
(1.153283967198086 0.06444414033669994 1.965158650676565e-20)
(1.006578434927568 -0.007317782501903421 -3.023624917236143e-20)
(1.121218732833583 0.04954650776065181 -1.731328535104838e-19)
(0.1524708073510094 -0.08670809336336205 0)
(1.073459556929476 0.03687320732510213 0)
(0.6615017883094948 -0.002898155070971934 -6.155255297304394e-22)
(1.012075058824942 -0.01969229016366494 9.390137909142955e-20)
(1.061837089041453 0.0007052069890941231 0)
(1.087523152949701 -0.1352667930002371 3.782532893731237e-19)
(1.002494080750649 -0.00617874442654152 -3.418062798582199e-21)
(1.001862502820219 -0.004389629291067666 1.250489466565519e-21)
(1.094010104028191 -0.009227728418686907 0)
(1.020777247856468 0.02021693506813746 -6.427426600984577e-20)
(1.106811745997472 -0.00168198363564984 6.516055004022599e-22)
(1.073752490465959 -0.01082162546797616 6.542555032284442e-20)
(1.085722495036314 0.02233815708937588 0)
(1.326163594848204 0.162597080358707 0)
(1.002061064338912 0.0003806065468674855 4.412844625368459e-20)
(1.323724417664297 -0.1299385622799246 1.565555498196602e-19)
(0.02807835504447978 -0.1460774180633254 -2.45647646180967e-19)
(1.071267948577773 -0.00554621300110848 0)
(1.116178975825229 0.001579370699889772 1.221928965830154e-20)
(0.7269642308578234 0.01786828162532809 0)
(1.060949207854404 0.003336474745697671 0)
(0.8668187837100845 0.1650482559776695 4.726014805623284e-19)
(1.27410947114556 0.1195775379154313 1.818959492749724e-19)
(0.6541415429926417 -0.003116831006363048 -6.34679940680999e-20)
(1.042129854212789 -0.00368420128087788 -3.354926362784867e-21)
(1.054956415247392 -0.0002624468659219362 6.571584212372607e-20)
(1.35929130268481 0.1224197857073584 6.701671512996985e-19)
(1.337371119063276 0.2529650418950883 0)
(1.057878494850234 0.005034162143905251 0)
(0.9952461987942189 -0.006445966718930972 1.45421512153611e-20)
(0.9947825288187105 -0.008993939215343969 2.07321536405353e-21)
(1.385364149049976 0.2003003118901732 4.284340319470828e-19)
(0.6816845266512904 0.000652057457440659 9.852834380873207e-20)
(1.0056584454924 -0.002037916150958757 -5.970069258642201e-20)
(1.097976857408155 0.01306293660300527 2.542392858105631e-20)
(0.6694651381757037 0.005001536796561932 0)
(1.066082703387012 -0.01203005649641377 0)
(0.9882784540505499 0.125813482659301 -1.247033734433973e-19)
(1.082010633004656 0.002208907537469192 -2.483921927787917e-20)
(0.9819728318389644 -2.538742524858277e-05 3.289554051157811e-20)
(0.9912105684908677 0.006003795956342371 0)
(0.6382492000601354 -0.001157545754717155 0)
(0.976879293214201 -0.001285040841963563 0)
(0.6419851197453169 -0.00147503052513811 2.720278427923381e-21)
(1.08790639847857 -0.05765229801089223 1.208101966095683e-19)
(1.110705214552624 -0.002081047900649316 1.226884768307635e-21)
(0.9580722955714721 -0.0009134821038063721 3.907827464916467e-20)
(1.015958323803849 0.01077846996031761 1.670617901097031e-20)
(1.063918754515122 0.008725588224447807 -2.161612145938664e-21)
(0.6348031591615865 0.008846263672701317 -3.641487322960795e-20)
(1.001992437544295 0.0124184914758621 -7.703919957162409e-22)
(1.035801379862779 0.01272698497291819 4.986342874599907e-21)
(0.9879004891338308 -0.006728253018611467 0)
(0.6100858410666987 -0.0004741320178380539 0)
(1.068805738118567 0.02274779141173161 0)
(1.015886842316372 -0.0156815137902471 1.058064457033286e-20)
(1.021739446605175 -0.002143703540795555 0)
(0.9923226330977114 0.01511746204701992 -9.311591900498943e-21)
(1.012041717232437 0.006576015030154218 0)
(1.12936466654745 -0.005657944457914766 -1.258942936313057e-20)
(0.03399410137204971 -0.1377907164515579 -4.562078072676527e-20)
(1.035989167580077 -0.01557199713577482 -7.609419364807686e-22)
(1.045710654595037 0.008590466813726745 0)
(1.087301616415162 0.06552526922635704 8.387256611135272e-20)
(0.9697086712978994 -0.001042588104692417 3.118454227855888e-20)
(1.020557086597102 0.01717183827564 -2.320976991877921e-20)
(1.005571025016894 0.001626647378151648 2.450268894871451e-20)
(1.040721366743388 -0.004824380055935381 0)
(0.6409801782867903 -0.004021398790164931 0)
(1.025967446852119 0.02448531033678588 -7.580899494663847e-20)
(1.079312195599816 0.005270118472086251 4.886859977494643e-20)
(1.013370680213825 0.002756026232215489 0)
(0.9813915075997635 -0.002249287833918708 -1.90959849775507e-21)
(0.8712082032653135 0.02379098840748205 -1.454604425339818e-20)
(1.013960322970304 0.003055810410608662 -1.006767318901284e-20)
(1.027210437646951 -0.0006755366680528774 1.771502987863851e-20)
(0.9781419181810692 -0.0007620421219867292 0)
(1.004991473120843 0.008446971899443751 3.385127411637357e-20)
(1.106447941884844 -0.005217030364440829 0)
(0.9298529723483956 0.002113727552275859 -3.455034176812858e-20)
(0.9591237176369061 0.008368632731996794 0)
(0.9097094365122703 0.2084876062474521 5.129589597533385e-20)
(1.011058265688082 0.0673542912032814 0)
(0.9916522312783919 0.003683126476690951 -2.313846838184123e-20)
(1.05297244269104 -0.05166712955398849 -2.749908687853118e-20)
(0.9918645866774624 -0.001418956260582043 3.395665983071284e-20)
(1.010140380141751 0.001907983231551852 0)
(0.9796404518165343 -0.0008473048217431477 -3.167051890435012e-20)
(1.1732277500037 0.09509034366034694 -3.305603753936392e-19)
(1.068065260259866 -0.2633479441518642 0)
(0.9945959740784571 0.002047175979937183 -2.198979337746682e-20)
(0.981932326444788 0.009687382269368857 4.919156372864984e-21)
(0.9588891575589792 0.0009199605373464602 1.063755868765397e-21)
(0.7460151098724335 -0.001098916314163139 0)
(1.113277598508654 -0.07628738637845509 0)
(1.008204130480548 0.001159346965752147 -2.140060619949194e-20)
(0.8978184540643713 -0.002532939332663658 -1.054537089776354e-20)
(0.8505583862647289 0.01562547226151957 5.832384527718663e-21)
(1.010333338963003 0.005443096185201243 0)
(0.9525321512275686 0.003645433185479029 1.593859110496599e-20)
(1.005819934223327 -0.0002253828628663835 -2.286055097986364e-20)
(1.022786036791997 0.002495623854702959 -2.535066297574515e-20)
(1.111248165234031 -0.00571486241308011 -4.902502732697096e-21)
(1.114844968313659 -0.00329519026476399 0)
(1.011804950893544 0.002099046914613905 0)
(1.02493923140681 0.001248843276850381 0)
(0.9504516696229528 0.008989392981775904 -2.175468768880692e-20)
(1.017885244656977 0.01320171007508836 5.456788610445672e-20)
(1.080532289211743 0.007618422252724587 -2.254698735113265e-20)
(1.037035247107371 0.006376568123498247 0)
(1.106753370471546 -0.006376225738425102 1.810405854006717e-21)
(0.9962518953721282 0.001617675232957993 -2.21031380257742e-20)
(0.9824167374952586 0.004374867575917243 0)
(1.011569856554499 0.002042122767174307 4.685997282419777e-20)
(1.36360577651773 -0.3136581795780212 -1.125807562720124e-18)
(1.121880245497967 -0.04574966164380441 -1.095983137405133e-19)
(0.9742528959357321 0.008781555283701743 4.883860190601702e-20)
(0.7832274783112463 0.02496831591983454 -3.406560578678675e-20)
(1.220468556061955 0.05023607187534176 0)
(1.216800264263765 -0.1379604830454781 -1.470268995079022e-19)
(1.081709233625208 0.005026748387353304 0)
(1.009529111134876 0.001537066524236632 2.222881480680152e-20)
(-0.1715245067830881 -0.07249553762730164 0)
(0.9939711663359966 -0.004667716914669572 0)
(1.012383031482916 -0.02311893411532262 4.226271229723462e-20)
(0.7061107988632774 -0.01941716400173791 0)
(1.09680252378233 -0.01502735101865183 2.275883412108878e-21)
(1.041430520641122 -0.00272186904921094 1.499333645191532e-20)
(0.6331132395345518 0.004181899176875458 0)
(1.445807870956665 -0.1227026117063236 0)
(0.9866412002701977 0.001950949451392182 -1.081295376557901e-20)
(1.069646806056201 -0.01494500027616733 0)
(1.038104117475984 0.0005394974967487377 2.133094719335797e-20)
(1.087445630447113 -0.001339486075798376 0)
(1.008784015171993 2.268405659777103e-05 -1.173075978601661e-21)
(1.006220492314826 0.003094291664271972 0)
(1.013831542041814 -0.01078550343899025 2.110206388902133e-22)
(1.00318344363476 -0.02020579340134492 0)
(1.033599124291114 0.003097211201913703 1.8353373168587e-20)
(-0.2124170265471169 0.05120935404587244 2.717611135995508e-19)
(0.8226328663675592 0.03953163965455567 5.634695998524216e-20)
(1.005400496924074 0.002320506657452138 0)
(1.127628423219543 0.02453232745276068 -1.305530185665506e-20)
(1.114155332336375 0.01650574765698704 9.373835636458755e-21)
(1.053868037384279 -0.01309054922506645 -1.296289987181777e-19)
(0.9987801311318401 0.01037549378272706 5.373574453667319e-22)
(1.082525033050513 0.002122214625390935 0)
(1.185677981444662 0.05050580398680617 0)
(0.8351899067132439 -0.07419778015143445 4.601015029076509e-19)
(1.100477133864982 -0.01513173200233079 0)
(1.032506138409514 0.007879199461392757 -7.540106948374885e-21)
(1.042779061622411 0.005314844776572651 5.965957457782581e-21)
(1.050802525304812 -0.06089790286629843 -7.496830322852686e-21)
(1.140253298818299 -0.002157204223476689 1.690345538108189e-19)
(1.077707562497283 -0.002688671074597724 0)
(0.9952130521833416 0.001527631700308756 0)
(0.9971985746449828 -0.0238815460876153 -2.281315689000126e-21)
(0.9915965479517445 0.00273540879075331 0)
(1.028920077458551 -0.03776694080155132 6.414964219124351e-20)
(1.294663611567615 -0.0963709726307677 0)
(1.047116380805781 -0.01462591110917552 -7.457455990807865e-22)
(0.9861631207724488 0.0168299527140715 -8.740826923676121e-20)
(1.035533018305031 0.04164960220761423 -2.382164498552335e-21)
(-0.09271800422894942 0.179423392229173 -1.657469435386966e-19)
(-0.06281991774031515 -0.2843844586838455 -1.389319231296364e-19)
(0.8581716709231511 0.1176885805578228 0)
(0.2867165751678004 -0.003250750654901371 -2.994905175494006e-19)
(1.013588547359852 -0.01900467533483294 -1.39585888605714e-20)
(1.0639837638234 0.002619700510152379 -2.098833188806514e-20)
(0.9934361086551889 -0.0197584571572259 2.89824935920129e-20)
(1.024062793422439 -0.02658667692188825 2.519579974119817e-21)
(1.008286263396379 -0.0310714239851109 -6.596901596913892e-20)
(0.9886881418714107 0.004894435936646254 -3.478691957362158e-20)
(0.9936070786435373 0.004250376642682279 0)
(1.024730124654312 -0.001796458765084795 -3.585687867941237e-21)
(1.932816573851989 -0.1554172941534253 1.071533358026827e-18)
(1.052773011629873 -0.01750055016064732 0)
(0.9959901887576048 0.007270995198955063 1.52161491561479e-20)
(1.002903193505334 -0.0002470124249026841 4.067037783958544e-20)
(1.176195947380325 0.1369262192778865 0)
(1.004849142375604 -0.01402199828575502 -9.15116571622315e-22)
(0.9511601375512495 -0.001912050462645948 0)
(1.037848024173435 0.0417275683421849 0)
(1.293973941837728 0.158664449166199 2.202069877794466e-19)
(1.082119411345368 -0.01095716273611261 2.269854445244147e-20)
(1.018090046608604 0.03226178823771136 4.65435038272641e-20)
(1.081180836914615 -0.007605464955820189 -2.189307011416353e-20)
(1.053852564243966 -0.0120009261283076 1.337856390548049e-21)
(-0.384252011606012 -0.03583887229873536 0)
(0.9980660124499159 0.01362811320975682 0)
(0.1179562410576608 0.05935262639022808 -8.712820655752247e-20)
(1.005872725792013 0.02274556414730544 -4.107988262307353e-20)
(0.996342737981724 -0.004950167862736894 0)
(1.000266586086514 0.005779519195373083 -5.03512121780766e-21)
(1.081555877694008 -0.04209250341789564 0)
(0.9958219881921725 -0.01832282100130869 -7.788276568194825e-21)
(1.089937272910223 -0.04841499144357077 0)
(1.440773491288373 0.1758690336036867 0)
(1.054147278271307 -0.01171608514172556 0)
(0.9914415185211092 -0.02263390523452103 -3.8969327640539e-20)
(0.9809933553934291 -0.03055062029422711 -2.301821732784921e-21)
(1.019954156836405 -0.017891427541705 -1.836902696240268e-20)
(0.9974914534129875 0.01721049379201737 -5.565436753904408e-20)
(0.9951253087785583 0.00976412194485929 -1.482916955553668e-20)
(0.9939615008881222 -0.0263380462536067 0)
(1.002588528472709 0.02574634512541441 1.940719324645211e-20)
(1.038096216069895 -0.03449417851604051 0)
(1.110487964475187 -0.03610062867098973 2.582158234393853e-19)
(0.9952503352892428 0.01727341279013211 4.607734263674208e-20)
(0.6151148422522388 -0.008671859379408377 0)
(1.144356325778531 0.1348357099593182 -3.607427438435583e-21)
(0.8408658654363063 -0.1016374943179624 0)
(1.139068243881575 0.07293485921760215 -2.732397754260136e-19)
(1.31390320370541 -0.3875190340561399 1.286056622948552e-19)
(1.076531279281667 0.06314933015141201 -1.334891644801415e-20)
(1.009635534309438 -0.02973666172671401 0)
(0.9550033136958599 -0.2142024274571685 0)
(0.5151798300908227 0.1508016265650481 0)
(1.01201937912314 0.01209147293898918 1.094840110614161e-21)
(0.7040614077785994 -0.01759018600239226 0)
(0.9981237514776303 0.01790390590052612 3.536523145973784e-20)
(1.02115166899439 -0.001514698406562953 -2.714447204010779e-20)
(1.079181067351424 -0.008044798454183155 2.751198785515138e-21)
(1.041282519466052 -0.006549900182086678 3.153172425100172e-20)
(1.042753667846193 0.01085685452332642 0)
(1.055904876462849 0.0293096101868899 -1.011047575339188e-20)
(1.051372870963638 0.03446540733957872 -1.804207145179652e-20)
(0.9828048169900135 -0.02170912546559078 0)
(0.6249289613523024 0.005138508088286432 9.184004751906601e-20)
(0.894175684607227 -0.005892191341698309 -8.859050622565302e-20)
(0.909356344909146 0.005306199906435068 1.442262988529865e-20)
(0.6295859508374642 -0.006385196815642755 1.407307583036332e-20)
(0.9784305232357885 0.0001423398501178471 2.622261688553328e-20)
(1.004446729464401 -0.01760962239946223 -3.457167769669797e-20)
(0.9661997185617104 -0.01179606184008284 -3.391462610904511e-20)
(1.085525308865422 0.001452267067740878 0)
(1.018938529134423 0.004499463787603798 1.080018036970352e-20)
(1.13322556807376 0.04844036781629511 1.319956367435238e-19)
(1.034253587174606 0.041985386658586 0)
(1.022111976149864 0.002610755744977477 0)
(1.581562432892224 -0.1668283551150899 4.388086891324942e-19)
(1.039132836204711 -0.02860222243962247 0)
(1.021007743612361 0.006884742431934544 -3.685115664872165e-20)
(1.088775244134401 -0.004527131322848555 0)
(0.4820440611709559 -0.02680715338894393 0)
(-0.0415122577360533 0.009621680098532624 0)
(0.9899501655979585 -0.0238213746328103 1.226053720290769e-20)
(1.299645466204312 -0.09551947364064525 3.718551506929811e-19)
(1.034636050922151 0.03933406666712371 0)
(1.022543714836635 0.003323833525429198 -2.231540980072194e-20)
(0.9510328671344214 -0.1654023255712989 5.779836494692465e-22)
(1.252339953666235 0.07539962006237914 0)
(0.5989061405765482 0.7323117238159415 0)
(1.307542489404901 0.1486857202027308 1.096087467588931e-19)
(1.674750994924315 -0.02504468309753714 0)
(1.068065997413096 0.1172020570667906 0)
(0.7248815890394029 -0.004443120232286929 2.695424106255854e-21)
(1.052134988438105 0.04855367838829708 0)
(0.7148474185306185 0.09926939357321668 1.21813935281834e-19)
(0.9968041920899041 -0.01636986953578875 3.578116113966236e-19)
(1.033592260888534 -0.03954943443031249 2.659704282565417e-20)
(-0.3726714322172418 -0.02306281651427906 0)
(1.07155758496307 -0.01624272525790332 0)
(1.095935675217409 -0.01520630855065618 0)
(0.6473798946015015 -0.5007072831954432 -2.497760323664501e-19)
(0.9923579516458094 -0.0006323843753812604 0)
(1.091750450199685 -0.02192529879131062 5.081011470085635e-22)
(1.188956761472732 0.1212888017367514 -2.014260552022758e-19)
(1.090409837389804 -0.03816846354094054 0)
(1.004964848116323 -0.0211519761598401 0)
(0.8142412731775357 -0.191661256921741 -1.739974318125696e-19)
(0.9009485183124796 -0.1380275561736163 1.533056304147713e-19)
(1.028717382732514 0.01028643628740488 -2.188814172346076e-20)
(1.023120447253117 -0.009252445529741572 -4.457064916449803e-20)
(0.8688387690421983 0.003923746736990429 -3.769945941152772e-22)
(1.503157243761218 -0.1932250359720376 0)
(1.301081382135564 0.1166640383728581 3.177832964017338e-20)
(1.244847867193568 -0.0782551311482801 -3.013490058240853e-21)
(1.095890561741973 -0.01867762195831233 -3.872789763206006e-20)
(1.044123669183071 -0.01499972809029938 2.631540905943972e-20)
(1.092807900414128 -0.03917608370200035 9.266928359911363e-20)
(1.032570813518023 0.01962232576926587 0)
(1.046021885128356 -0.03221119818071283 0)
(1.115867105086892 -0.009038441902337048 0)
(1.090475364718467 -0.02542965774344629 0)
(0.9979078115570151 0.01089371107643184 0)
(1.151191090361812 0.07508094549154209 9.389383775512612e-20)
(1.344629686465588 -0.1536770859731185 0)
(1.04106535252862 -0.02121177989404933 -1.934250473380702e-22)
(1.053646736936665 0.05319724795878799 0)
(1.009949491521453 0.01456390626220019 -3.922824461189315e-20)
(1.033635825744975 -0.0081748247217118 9.178970459711936e-21)
(1.088985671286137 0.01331933730525369 -3.22284179989964e-20)
(1.084675096207743 -0.02976018747232081 0)
(1.076655726359597 -0.00469881986201676 0)
(1.104630740494885 0.09396150438489384 -1.416217841224367e-18)
(0.9350503960545383 -0.1485065406103149 -7.0897725170588e-20)
(1.175672098287067 0.1048785910985744 1.102682542726764e-19)
(-0.4707681170435727 0.001474480684899206 -2.924933758740572e-19)
(1.019569272447991 0.02909060244661963 -8.753095461798211e-20)
(1.005478965460121 -0.005637283052507222 0)
(-0.2847955993634499 0.03777091555293812 3.556956200944499e-19)
(-0.05386003653688787 0.3333169601884261 7.356825492936983e-21)
(0.9952261357394082 -0.006322284715551601 9.417604817706971e-20)
(0.1893429354095466 -0.03951493938474714 1.414549256970292e-19)
(1.097643646673194 0.0852684620006397 1.517588212303431e-20)
(0.093738633814184 -0.1073131556738344 -5.417388528679309e-20)
(1.10785665763445 0.003127207596756741 0)
(1.099021434680929 0.2556219531445244 0)
(1.021731490702376 0.0219986269973216 -1.714712013180618e-20)
(1.073156731219471 0.05956143820976354 0)
(1.02496357232925 0.02707380117855547 -9.447436412003686e-21)
(1.261094759980572 -0.54779490598974 8.014616838245894e-19)
(-0.08704819119429527 -0.2017495749369235 2.162155198511525e-19)
(1.29520357492016 0.1150586114551411 -6.240417889934447e-19)
(1.124197043630344 -0.0006999745497273398 0)
(1.13424279780114 0.09825731943553594 0)
(0.525592130150319 0.08135620340363123 2.526590541530002e-19)
(1.02305897366915 -0.02112559326321894 9.403462486388817e-20)
(1.005370467959751 -0.02384238355644221 0)
(1.212761142482065 0.2716290967503146 -9.681250836274528e-20)
(1.252564335652911 0.1356092058416607 -1.565793706694096e-19)
(1.026566306990535 0.002712936857536545 1.552983814260562e-20)
(1.298044888956646 -0.08459203025798018 -4.993495393827869e-19)
(0.3003368757863865 -0.01734571754133705 2.663570056219522e-19)
(0.8306209903184105 -0.1474716097599013 6.746150655247667e-19)
(1.058692968392337 0.06721113290135379 1.0606910376551e-19)
(1.041306869890888 -0.008103639500355865 1.43240141850662e-21)
(1.001189300382859 0.02011321015216106 2.944618487259281e-20)