/*--------------------------------*- C++ -*----------------------------------*\
| =========                 |                                                 |
| \\      /  F ield         | OpenFOAM: The Open Source CFD Toolbox           |
|  \\    /   O peration     | Version:  2412                                  |
|   \\  /    A nd           | Website:  www.openfoam.com                      |
|    \\/     M anipulation  |                                                 |
\*---------------------------------------------------------------------------*/
FoamFile
{
    version     2.0;
    format      ascii;
    arch        "LSB;label=32;scalar=64";
    class       volVectorField;
    location    "1";
    object      cellDisplacement;
}
// * * * * * * * * * * * * * * * * * * * * * * * * * * * * * * * * * * * * * //

dimensions      [0 1 0 0 0 0 0];

internalField   nonuniform List<vector> 
1024
(
(0.00217233 -0.00336868 0)
(0.00424727 -0.00618021 0)
(0.00647848 -0.00831547 0)
(0.00899377 -0.00969841 0)
(0.0118355 -0.010239 0)
(0.0149092 -0.00982644 0)
(0.0179609 -0.0083895 0)
(0.0205709 -0.00596282 0)
(0.0222952 -0.00279596 0)
(0.0225863 0.000646507 0)
(0.0213067 0.00371025 0)
(0.0186663 0.0058029 0)
(0.0151261 0.00659543 0)
(0.011168 0.00608206 0)
(0.00717395 0.00451335 0)
(0.00333834 0.00226909 0)
(0.00981881 -0.0148099 0)
(0.0159045 -0.0220349 0)
(0.0225029 -0.0271824 0)
(0.0299004 -0.0301297 0)
(0.0380904 -0.030647 0)
(0.0467169 -0.0285076 0)
(0.0550102 -0.0236076 0)
(0.061843 -0.0161783 0)
(0.0661686 -0.00701953 0)
(0.0666908 0.00261837 0)
(0.0632399 0.0111232 0)
(0.05635 0.0171147 0)
(0.0470728 0.0198167 0)
(0.0365654 0.0191596 0)
(0.0257048 0.0156191 0)
(0.0149533 0.00994232 0)
(0.0204418 -0.0301765 0)
(0.0302649 -0.0403955 0)
(0.0410003 -0.0472321 0)
(0.052978 -0.050591 0)
(0.0660426 -0.0501314 0)
(0.0794938 -0.045547 0)
(0.0920641 -0.0368048 0)
(0.102116 -0.0244398 0)
(0.108038 -0.009763 0)
(0.108358 0.00528762 0)
(0.102982 0.0184759 0)
(0.0927642 0.0279684 0)
(0.0791329 0.0327432 0)
(0.0635826 0.0326572 0)
(0.0473066 0.0282473 0)
(0.0308669 0.0203642 0)
(0.033948 -0.0489915 0)
(0.0472807 -0.0608125 0)
(0.0619321 -0.0681141 0)
(0.0781608 -0.0708236 0)
(0.0955633 -0.0685039 0)
(0.113079 -0.0608562 0)
(0.128985 -0.0479876 0)
(0.14136 -0.0308215 0)
(0.148065 -0.0110867 0)
(0.14786 0.00872103 0)
(0.140807 0.0259994 0)
(0.12801 0.0386855 0)
(0.111103 0.0456371 0)
(0.0917987 0.0466678 0)
(0.0714073 0.0422804 0)
(0.0505121 0.0333168 0)
(0.0502611 -0.0706943 0)
(0.0669161 -0.0828171 0)
(0.0852479 -0.08943 0)
(0.105344 -0.0905014 0)
(0.126516 -0.0855457 0)
(0.147328 -0.0743208 0)
(0.165733 -0.0571577 0)
(0.179488 -0.0353253 0)
(0.186397 -0.0109829 0)
(0.185461 0.0130356 0)
(0.176937 0.0339357 0)
(0.162158 0.0495789 0)
(0.142859 0.058787 0)
(0.120839 0.0613472 0)
(0.0974724 0.0577072 0)
(0.0733019 0.048663 0)
(0.0693538 -0.0947057 0)
(0.0891505 -0.105887 0)
(0.110915 -0.110759 0)
(0.134459 -0.109295 0)
(0.158773 -0.101009 0)
(0.182102 -0.0857828 0)
(0.202207 -0.0642449 0)
(0.216535 -0.0379349 0)
(0.223172 -0.00938869 0)
(0.22136 0.0183853 0)
(0.211629 0.0425609 0)
(0.195338 0.0609911 0)
(0.174318 0.0725162 0)
(0.15039 0.0769108 0)
(0.125004 0.0746064 0)
(0.098598 0.0663434 0)
(0.0912513 -0.120396 0)
(0.114047 -0.129524 0)
(0.138926 -0.131637 0)
(0.165434 -0.126822 0)
(0.19225 -0.114615 0)
(0.217344 -0.0950772 0)
(0.238272 -0.0691036 0)
(0.252543 -0.038556 0)
(0.258529 -0.00617305 0)
(0.255801 0.024998 0)
(0.244994 0.052159 0)
(0.227551 0.073231 0)
(0.205369 0.0871389 0)
(0.180189 0.0936364 0)
(0.153518 0.0931394 0)
(0.125776 0.0864017 0)
(0.116064 -0.147098 0)
(0.141679 -0.153138 0)
(0.169347 -0.1516 0)
(0.198298 -0.142685 0)
(0.226897 -0.126031 0)
(0.252949 -0.101943 0)
(0.273908 -0.0715645 0)
(0.287565 -0.0370214 0)
(0.292639 -0.00112333 0)
(0.288868 0.0331152 0)
(0.277028 0.0629973 0)
(0.258713 0.0866173 0)
(0.235774 0.102968 0)
(0.209915 0.111832 0)
(0.182546 0.113538 0)
(0.154161 0.108962 0)
(0.143959 -0.174052 0)
(0.172173 -0.176002 0)
(0.202241 -0.170008 0)
(0.233017 -0.156341 0)
(0.262639 -0.134824 0)
(0.288797 -0.106018 0)
(0.309107 -0.0713437 0)
(0.321706 -0.0330578 0)
(0.325535 0.00603177 0)
(0.320546 0.0430198 0)
(0.307747 0.0754291 0)
(0.288749 0.101527 0)
(0.265349 0.120402 0)
(0.239189 0.13184 0)
(0.211587 0.136148 0)
(0.183062 0.134276 0)
(0.175239 -0.200396 0)
(0.205734 -0.197308 0)
(0.237677 -0.186067 0)
(0.269565 -0.167071 0)
(0.299378 -0.140385 0)
(0.324857 -0.106836 0)
(0.343896 -0.0680308 0)
(0.354917 -0.0263034 0)
(0.357124 0.0156269 0)
(0.350819 0.0550982 0)
(0.337098 0.0898829 0)
(0.317533 0.118426 0)
(0.293841 0.139906 0)
(0.267592 0.154137 0)
(0.240065 0.161407 0)
(0.211697 0.162692 0)
(0.210323 -0.225061 0)
(0.242692 -0.216027 0)
(0.275852 -0.198817 0)
(0.308012 -0.174012 0)
(0.337122 -0.141972 0)
(0.361086 -0.103735 0)
(0.378137 -0.0610756 0)
(0.387008 -0.0162813 0)
(0.387324 0.0281548 0)
(0.379606 0.0698767 0)
(0.364944 0.106903 0)
(0.344833 0.137874 0)
(0.320887 0.162059 0)
(0.294611 0.179301 0)
(0.267231 0.189848 0)
(0.239137 0.194768 0)
(0.249877 -0.246704 0)
(0.283526 -0.230811 0)
(0.317046 -0.20695 0)
(0.34844 -0.175966 0)
(0.375768 -0.138517 0)
(0.397247 -0.095846 0)
(0.411533 -0.0497297 0)
(0.417813 -0.00230008 0)
(0.415995 0.0443038 0)
(0.406685 0.0880238 0)
(0.390979 0.127164 0)
(0.370263 0.160572 0)
(0.345975 0.187615 0)
(0.31952 0.208096 0)
(0.292104 0.222258 0)
(0.264147 0.231242 0)
(0.294728 -0.263188 0)
(0.328757 -0.239547 0)
(0.361417 -0.208521 0)
(0.390702 -0.171237 0)
(0.414978 -0.128639 0)
(0.432929 -0.0819807 0)
(0.44367 -0.0329442 0)
(0.446824 0.0165935 0)
(0.442542 0.0648774 0)
(0.431427 0.110261 0)
(0.414494 0.151391 0)
(0.39299 0.187299 0)
(0.368174 0.217366 0)
(0.34125 0.241408 0)
(0.313306 0.259645 0)
(0.28483 0.273123 0)
(0.3458 -0.271247 0)
(0.378736 -0.239007 0)
(0.408707 -0.200586 0)
(0.434069 -0.157338 0)
(0.453759 -0.11028 0)
(0.467048 -0.0605951 0)
(0.473477 -0.00960943 0)
(0.473003 0.041272 0)
(0.465903 0.0907027 0)
(0.452751 0.137434 0)
(0.434329 0.180457 0)
(0.41165 0.218921 0)
(0.385785 0.252252 0)
(0.357742 0.280274 0)
(0.328489 0.303079 0)
(0.298424 0.321543 0)
(0.403319 -0.265467 0)
(0.432553 -0.224521 0)
(0.457053 -0.179571 0)
(0.47618 -0.131667 0)
(0.489586 -0.0816543 0)
(0.497056 -0.0303527 0)
(0.498517 0.0213429 0)
(0.494054 0.07252 0)
(0.483908 0.122296 0)
(0.468473 0.169839 0)
(0.448283 0.214405 0)
(0.423982 0.255349 0)
(0.396312 0.292218 0)
(0.366024 0.324745 0)
(0.333825 0.352892 0)
(0.30003 0.377125 0)
(0.458612 -0.235949 0)
(0.479531 -0.189861 0)
(0.495832 -0.141944 0)
(0.507357 -0.0926605 0)
(0.513996 -0.0424847 0)
(0.515685 0.00810036 0)
(0.512408 0.0586074 0)
(0.504196 0.10855 0)
(0.491129 0.157447 0)
(0.473331 0.204828 0)
(0.450975 0.250236 0)
(0.424276 0.293235 0)
(0.393491 0.333409 0)
(0.358917 0.370372 0)
(0.320886 0.403769 0)
(0.279764 0.433277 0)
(0.0033688 0.00216901 0)
(0.00618172 0.00423863 0)
(0.0083189 0.00646507 0)
(0.00970351 0.00897833 0)
(0.0102446 0.0118206 0)
(0.00983166 0.0148972 0)
(0.00839372 0.0179523 0)
(0.00596585 0.020565 0)
(0.00279806 0.0222906 0)
(-0.000644724 0.0225817 0)
(-0.00370827 0.0213016 0)
(-0.00580091 0.0186608 0)
(-0.00659385 0.0151203 0)
(-0.00608116 0.0111629 0)
(-0.00451332 0.00716987 0)
(-0.00226957 0.00333535 0)
(0.014812 0.00980387 0)
(0.0220416 0.0158733 0)
(0.0271936 0.0224597 0)
(0.030145 0.0298528 0)
(0.0306635 0.0380468 0)
(0.0285225 0.0466826 0)
(0.0236195 0.0549859 0)
(0.0161868 0.0618262 0)
(0.00702569 0.0661553 0)
(-0.00261294 0.0666777 0)
(-0.0111175 0.0632254 0)
(-0.017109 0.0563343 0)
(-0.0198118 0.0470568 0)
(-0.0191565 0.0365499 0)
(-0.0156181 0.0256914 0)
(-0.0099427 0.0149434 0)
(0.0301808 0.0204092 0)
(0.0404071 0.0302088 0)
(0.0472513 0.0409265 0)
(0.0506161 0.0528999 0)
(0.0501579 0.0659732 0)
(0.0455707 0.0794404 0)
(0.0368234 0.0920268 0)
(0.0244532 0.10209 0)
(0.00977241 0.108018 0)
(-0.00527927 0.108337 0)
(-0.0184669 0.10296 0)
(-0.0279592 0.0927402 0)
(-0.0327352 0.0791076 0)
(-0.0326515 0.0635577 0)
(-0.0282445 0.047284 0)
(-0.0203637 0.0308491 0)
(0.0489993 0.0338943 0)
(0.06083 0.0471972 0)
(0.0681413 0.061829 0)
(0.0708578 0.0780558 0)
(0.0685393 0.0954723 0)
(0.0608874 0.113011 0)
(0.0480115 0.128937 0)
(0.0308385 0.141327 0)
(0.0110986 0.148039 0)
(-0.0087103 0.147834 0)
(-0.0259878 0.140779 0)
(-0.0386736 0.127979 0)
(-0.0456262 0.111071 0)
(-0.0466596 0.0917654 0)
(-0.0422752 0.0713761 0)
(-0.0333143 0.0504864 0)
(0.0707054 0.0501821 0)
(0.0828406 0.0668054 0)
(0.0894648 0.085118 0)
(0.0905437 0.105216 0)
(0.0855889 0.126409 0)
(0.0743579 0.147249 0)
(0.057186 0.165679 0)
(0.0353446 0.179451 0)
(0.0109965 0.186367 0)
(-0.0130236 0.185431 0)
(-0.0339224 0.176904 0)
(-0.0495648 0.162122 0)
(-0.0587738 0.14282 0)
(-0.0613363 0.120799 0)
(-0.0576992 0.0974336 0)
(-0.0486577 0.0732686 0)
(0.0947222 0.069249 0)
(0.105917 0.0890138 0)
(0.110801 0.110763 0)
(0.109345 0.134316 0)
(0.101058 0.158655 0)
(0.0858242 0.182016 0)
(0.0642758 0.202149 0)
(0.0379555 0.216495 0)
(0.00940292 0.22314 0)
(-0.0183724 0.221328 0)
(-0.0425468 0.211594 0)
(-0.0609758 0.195298 0)
(-0.0725012 0.174275 0)
(-0.0768977 0.150345 0)
(-0.0745957 0.124959 0)
(-0.066335 0.0985581 0)
(0.120417 0.0911192 0)
(0.129561 0.113886 0)
(0.131687 0.138757 0)
(0.126877 0.16528 0)
(0.114668 0.192127 0)
(0.0951213 0.217257 0)
(0.0691356 0.238214 0)
(0.0385766 0.252503 0)
(0.00618689 0.258496 0)
(-0.0249856 0.255768 0)
(-0.052145 0.244958 0)
(-0.0732154 0.22751 0)
(-0.0871232 0.205324 0)
(-0.0936219 0.18014 0)
(-0.0931266 0.153469 0)
(-0.0863902 0.125731 0)
(0.147123 0.115905 0)
(0.15318 0.141499 0)
(0.151655 0.169168 0)
(0.142745 0.198142 0)
(0.126086 0.226777 0)
(0.101987 0.252865 0)
(0.071596 0.273852 0)
(0.0370408 0.287527 0)
(0.00113586 0.292607 0)
(-0.033104 0.288836 0)
(-0.0629845 0.276992 0)
(-0.0866026 0.258672 0)
(-0.102953 0.235729 0)
(-0.111818 0.209866 0)
(-0.113524 0.182496 0)
(-0.108948 0.154114 0)
(0.174081 0.143781 0)
(0.176049 0.171981 0)
(0.170067 0.202062 0)
(0.156403 0.232867 0)
(0.134879 0.262528 0)
(0.106061 0.288721 0)
(0.0713727 0.309056 0)
(0.0330746 0.321671 0)
(-0.00602136 0.325505 0)
(-0.0430108 0.320516 0)
(-0.0754183 0.307713 0)
(-0.101514 0.288711 0)
(-0.120388 0.265306 0)
(-0.131826 0.239142 0)
(-0.136135 0.211539 0)
(-0.134262 0.183014 0)
(0.200429 0.175049 0)
(0.197357 0.205545 0)
(0.186128 0.237508 0)
(0.167131 0.26943 0)
(0.140437 0.299281 0)
(0.106874 0.324791 0)
(0.0680552 0.343853 0)
(0.0263167 0.354886 0)
(-0.0156199 0.357097 0)
(-0.0550921 0.350792 0)
(-0.0898746 0.337067 0)
(-0.118416 0.317499 0)
(-0.139893 0.293802 0)
(-0.154124 0.267549 0)
(-0.161395 0.24002 0)
(-0.162679 0.211651 0)
(0.225098 0.210144 0)
(0.216077 0.242522 0)
(0.198875 0.275707 0)
(0.174067 0.307902 0)
(0.142017 0.337044 0)
(0.103767 0.361035 0)
(0.0610946 0.378103 0)
(0.0162897 0.386983 0)
(-0.0281516 0.387302 0)
(-0.0698741 0.379583 0)
(-0.106898 0.364918 0)
(-0.137866 0.344804 0)
(-0.162049 0.320854 0)
(-0.179291 0.294575 0)
(-0.189838 0.267192 0)
(-0.194758 0.239096 0)
(0.24674 0.249728 0)
(0.230857 0.283392 0)
(0.206999 0.316937 0)
(0.17601 0.348359 0)
(0.138551 0.375713 0)
(0.0958693 0.397211 0)
(0.0497416 0.41151 0)
(0.00230389 0.417795 0)
(-0.0443045 0.415978 0)
(-0.0880247 0.406667 0)
(-0.127162 0.390958 0)
(-0.160568 0.37024 0)
(-0.187608 0.345949 0)
(-0.20809 0.319492 0)
(-0.222251 0.292072 0)
(-0.231236 0.264111 0)
(0.263222 0.294624 0)
(0.239585 0.328668 0)
(0.208557 0.361348 0)
(0.171267 0.390652 0)
(0.128661 0.414945 0)
(0.0819938 0.432907 0)
(0.0329499 0.443657 0)
(-0.0165936 0.446813 0)
(-0.0648803 0.442531 0)
(-0.110264 0.431414 0)
(-0.151391 0.41448 0)
(-0.187297 0.392973 0)
(-0.217362 0.368156 0)
(-0.241404 0.341229 0)
(-0.259642 0.313282 0)
(-0.273121 0.284802 0)
(0.271272 0.345743 0)
(0.239031 0.378689 0)
(0.200606 0.408673 0)
(0.157354 0.434045 0)
(0.110289 0.453743 0)
(0.0605996 0.467038 0)
(0.00961017 0.47347 0)
(-0.0412736 0.472998 0)
(-0.0907053 0.465898 0)
(-0.137436 0.452745 0)
(-0.180458 0.434322 0)
(-0.21892 0.411641 0)
(-0.25225 0.385774 0)
(-0.280272 0.357729 0)
(-0.303079 0.328473 0)
(-0.321544 0.298404 0)
(0.265478 0.4033 0)
(0.224531 0.432538 0)
(0.179579 0.457043 0)
(0.131671 0.476174 0)
(0.0816561 0.489581 0)
(0.0303528 0.497054 0)
(-0.0213437 0.498515 0)
(-0.0725209 0.494053 0)
(-0.122297 0.483907 0)
(-0.169839 0.468471 0)
(-0.214405 0.448281 0)
(-0.255348 0.423979 0)
(-0.292217 0.396308 0)
(-0.324745 0.366019 0)
(-0.352892 0.333818 0)
(-0.377126 0.300021 0)
(0.235949 0.458612 0)
(0.189861 0.479531 0)
(0.141944 0.495832 0)
(0.0926605 0.507357 0)
(0.0424847 0.513996 0)
(-0.00810036 0.515685 0)
(-0.0586074 0.512408 0)
(-0.10855 0.504196 0)
(-0.157447 0.491129 0)
(-0.204828 0.473331 0)
(-0.250236 0.450975 0)
(-0.293235 0.424276 0)
(-0.333409 0.393491 0)
(-0.370372 0.358917 0)
(-0.403769 0.320886 0)
(-0.433277 0.279764 0)
(-0.00216938 0.00336627 0)
(-0.00423881 0.00617862 0)
(-0.00646436 0.00831539 0)
(-0.00897646 0.00970027 0)
(-0.011818 0.0102422 0)
(-0.0148946 0.00983024 0)
(-0.0179504 0.00839289 0)
(-0.0205644 0.00596462 0)
(-0.0222909 0.00279628 0)
(-0.0225824 -0.000646858 0)
(-0.0213024 -0.00371141 0)
(-0.0186612 -0.00580473 0)
(-0.0151203 -0.00659769 0)
(-0.0111624 -0.00608518 0)
(-0.00716922 -0.00451612 0)
(-0.00333519 -0.00227049 0)
(-0.00980433 0.0148026 0)
(-0.0158722 0.022031 0)
(-0.0224563 0.0271822 0)
(-0.0298468 0.030135 0)
(-0.0380393 0.0306564 0)
(-0.0466758 0.0285179 0)
(-0.0549817 0.0236159 0)
(-0.0618254 0.016182 0)
(-0.0661569 0.00701934 0)
(-0.0666802 -0.00262066 0)
(-0.0632276 -0.0111264 0)
(-0.0563356 -0.0171192 0)
(-0.047057 -0.019824 0)
(-0.0365489 -0.0191684 0)
(-0.0256898 -0.0156283 0)
(-0.0149423 -0.00994909 0)
(-0.0204084 0.030164 0)
(-0.0302052 0.040388 0)
(-0.0409195 0.0472324 0)
(-0.0528898 0.0506 0)
(-0.065962 0.0501459 0)
(-0.079431 0.0455625 0)
(-0.0920217 0.0368162 0)
(-0.10209 0.0244443 0)
(-0.108021 0.00976134 0)
(-0.108341 -0.00529184 0)
(-0.102963 -0.0184813 0)
(-0.0927423 -0.0279761 0)
(-0.0791082 -0.0327539 0)
(-0.0635567 -0.0326715 0)
(-0.0472818 -0.0282629 0)
(-0.030847 -0.0203774 0)
(-0.0338913 0.0489746 0)
(-0.0471903 0.0608029 0)
(-0.0618181 0.0681153 0)
(-0.0780424 0.0708358 0)
(-0.0954587 0.068523 0)
(-0.113 0.0608755 0)
(-0.128933 0.0480005 0)
(-0.141328 0.0308252 0)
(-0.148044 0.0110828 0)
(-0.147839 -0.00872803 0)
(-0.140783 -0.0260072 0)
(-0.127982 -0.0386954 0)
(-0.111072 -0.0456514 0)
(-0.0917646 -0.0466866 0)
(-0.0713737 -0.042302 0)
(-0.0504834 -0.0333372 0)
(-0.050176 0.0706731 0)
(-0.0667947 0.0828064 0)
(-0.085104 0.0894328 0)
(-0.105201 0.0905171 0)
(-0.126394 0.0855683 0)
(-0.147239 0.0743415 0)
(-0.165676 0.0571702 0)
(-0.179454 0.0353265 0)
(-0.186373 0.0109759 0)
(-0.185437 -0.0130457 0)
(-0.17691 -0.033946 0)
(-0.162125 -0.0495913 0)
(-0.142821 -0.0588038 0)
(-0.120799 -0.0613698 0)
(-0.0974314 -0.057734 0)
(-0.073265 -0.0486899 0)
(-0.0692392 0.0946837 0)
(-0.0890001 0.105877 0)
(-0.110747 0.110765 0)
(-0.1343 0.109314 0)
(-0.158642 0.101033 0)
(-0.182009 0.0858035 0)
(-0.202148 0.0642553 0)
(-0.2165 0.0379331 0)
(-0.223147 0.00937831 0)
(-0.221335 -0.0183983 0)
(-0.211599 -0.042574 0)
(-0.195302 -0.0610057 0)
(-0.174277 -0.0725354 0)
(-0.150345 -0.0769362 0)
(-0.124957 -0.0746371 0)
(-0.0985539 -0.0663762 0)
(-0.0911065 0.120374 0)
(-0.11387 0.129518 0)
(-0.138741 0.131647 0)
(-0.165266 0.126844 0)
(-0.192117 0.114639 0)
(-0.217253 0.0950952 0)
(-0.238216 0.0691097 0)
(-0.252509 0.0385496 0)
(-0.258504 0.0061585 0)
(-0.255775 -0.0250147 0)
(-0.244964 -0.0521748 0)
(-0.227514 -0.0732478 0)
(-0.205327 -0.0871599 0)
(-0.180141 -0.0936637 0)
(-0.153467 -0.0931728 0)
(-0.125727 -0.0864386 0)
(-0.11589 0.147078 0)
(-0.141484 0.153135 0)
(-0.169153 0.151614 0)
(-0.198131 0.142708 0)
(-0.226771 0.126053 0)
(-0.252864 0.101956 0)
(-0.273856 0.0715655 0)
(-0.287534 0.0370102 0)
(-0.292616 0.00110486 0)
(-0.288843 -0.0331348 0)
(-0.276998 -0.0630159 0)
(-0.258676 -0.0866362 0)
(-0.235731 -0.102991 0)
(-0.209867 -0.111861 0)
(-0.182494 -0.113572 0)
(-0.154109 -0.109001 0)
(-0.143766 0.174035 0)
(-0.171968 0.176005 0)
(-0.202051 0.170026 0)
(-0.23286 0.156365 0)
(-0.262526 0.134841 0)
(-0.288723 0.106025 0)
(-0.309062 0.0713378 0)
(-0.321679 0.0330411 0)
(-0.325514 -0.00605417 0)
(-0.320523 -0.0430427 0)
(-0.307719 -0.0754497 0)
(-0.288714 -0.101547 0)
(-0.265309 -0.120425 0)
(-0.239142 -0.131868 0)
(-0.211536 -0.136182 0)
(-0.183008 -0.134316 0)
(-0.175036 0.200385 0)
(-0.205535 0.197316 0)
(-0.237502 0.186088 0)
(-0.269429 0.167091 0)
(-0.299282 0.140396 0)
(-0.324796 0.106834 0)
(-0.34386 0.0680171 0)
(-0.354895 0.0262813 0)
(-0.357106 -0.0156529 0)
(-0.350799 -0.0551228 0)
(-0.337072 -0.0899045 0)
(-0.317502 -0.118447 0)
(-0.293804 -0.139927 0)
(-0.267549 -0.154163 0)
(-0.240017 -0.161438 0)
(-0.211645 -0.16273 0)
(-0.210136 0.225057 0)
(-0.242517 0.216039 0)
(-0.275706 0.198837 0)
(-0.307904 0.174027 0)
(-0.337048 0.141975 0)
(-0.361041 0.103725 0)
(-0.37811 0.0610548 0)
(-0.386992 0.0162547 0)
(-0.38731 -0.0281827 0)
(-0.37959 -0.0699019 0)
(-0.364922 -0.106925 0)
(-0.344807 -0.137893 0)
(-0.320855 -0.162079 0)
(-0.294574 -0.179324 0)
(-0.267189 -0.189876 0)
(-0.239091 -0.194802 0)
(-0.249724 0.246705 0)
(-0.283392 0.230823 0)
(-0.31694 0.206964 0)
(-0.348364 0.175972 0)
(-0.375719 0.138511 0)
(-0.397217 0.0958285 0)
(-0.411516 0.0497043 0)
(-0.417802 0.00227133 0)
(-0.415984 -0.0443312 0)
(-0.406672 -0.0880481 0)
(-0.390962 -0.127185 0)
(-0.370242 -0.160591 0)
(-0.34595 -0.187633 0)
(-0.319491 -0.208116 0)
(-0.292069 -0.222281 0)
(-0.264107 -0.23127 0)
(-0.294625 0.263193 0)
(-0.328671 0.239555 0)
(-0.361354 0.208527 0)
(-0.390659 0.171235 0)
(-0.414951 0.128627 0)
(-0.432913 0.0819607 0)
(-0.443661 0.0329191 0)
(-0.446817 -0.0166194 0)
(-0.442534 -0.0649012 0)
(-0.431417 -0.110282 0)
(-0.414482 -0.151408 0)
(-0.392975 -0.187314 0)
(-0.368156 -0.21738 0)
(-0.341228 -0.241424 0)
(-0.313281 -0.259663 0)
(-0.284799 -0.273144 0)
(-0.345746 0.271251 0)
(-0.378694 0.239009 0)
(-0.408679 0.200585 0)
(-0.434051 0.157332 0)
(-0.453748 0.110268 0)
(-0.467041 0.060579 0)
(-0.473472 0.00959105 0)
(-0.472999 -0.0412901 0)
(-0.465899 -0.0907188 0)
(-0.452745 -0.137448 0)
(-0.434322 -0.180468 0)
(-0.411641 -0.218931 0)
(-0.385774 -0.252261 0)
(-0.357728 -0.280284 0)
(-0.328472 -0.30309 0)
(-0.298403 -0.321557 0)
(-0.403303 0.265468 0)
(-0.432541 0.224521 0)
(-0.457046 0.17957 0)
(-0.476176 0.131663 0)
(-0.489584 0.0816485 0)
(-0.497055 0.0303456 0)
(-0.498516 -0.0213506 0)
(-0.494053 -0.0725273 0)
(-0.483907 -0.122303 0)
(-0.468471 -0.169844 0)
(-0.448281 -0.21441 0)
(-0.423979 -0.255353 0)
(-0.396308 -0.292221 0)
(-0.366019 -0.324749 0)
(-0.333817 -0.352896 0)
(-0.30002 -0.37713 0)
(-0.458612 0.235949 0)
(-0.479531 0.189861 0)
(-0.495832 0.141944 0)
(-0.507357 0.0926605 0)
(-0.513996 0.0424847 0)
(-0.515685 -0.00810036 0)
(-0.512408 -0.0586074 0)
(-0.504196 -0.10855 0)
(-0.491129 -0.157447 0)
(-0.473331 -0.204828 0)
(-0.450975 -0.250236 0)
(-0.424276 -0.293235 0)
(-0.393491 -0.333409 0)
(-0.358917 -0.370372 0)
(-0.320886 -0.403769 0)
(-0.279764 -0.433277 0)
(-0.00336583 -0.00217083 0)
(-0.00617737 -0.00424235 0)
(-0.00831336 -0.00647012 0)
(-0.00969687 -0.0089841 0)
(-0.0102355 -0.0118286 0)
(-0.00982289 -0.01491 0)
(-0.00838399 -0.0179671 0)
(-0.00595499 -0.0205802 0)
(-0.00278698 -0.0223036 0)
(0.000656908 -0.0225938 0)
(0.00372172 -0.0213182 0)
(0.00581518 -0.0186778 0)
(0.00660593 -0.0151319 0)
(0.00609039 -0.0111689 0)
(0.00451798 -0.00716972 0)
(0.00227025 -0.0033348 0)
(-0.0148011 -0.00981142 0)
(-0.0220276 -0.015886 0)
(-0.0271768 -0.0224757 0)
(-0.0301245 -0.0298718 0)
(-0.0306371 -0.0380713 0)
(-0.0284963 -0.0467195 0)
(-0.0235904 -0.0550273 0)
(-0.0161544 -0.061868 0)
(-0.00699251 -0.0661909 0)
(0.00264939 -0.0667147 0)
(0.0111565 -0.0632621 0)
(0.0171502 -0.0563709 0)
(0.0198495 -0.047089 0)
(0.0191855 -0.0365659 0)
(0.0156375 -0.0256988 0)
(0.00995269 -0.0149504 0)
(-0.0301614 -0.0204242 0)
(-0.0403833 -0.0302308 0)
(-0.047224 -0.0409537 0)
(-0.0505831 -0.0529319 0)
(-0.0501178 -0.0660151 0)
(-0.0455275 -0.0794977 0)
(-0.036775 -0.0920901 0)
(-0.0243998 -0.102152 0)
(-0.00971794 -0.108072 0)
(0.0053375 -0.108389 0)
(0.0185299 -0.103016 0)
(0.0280252 -0.0927967 0)
(0.0327956 -0.0791531 0)
(0.0327024 -0.0635869 0)
(0.0282822 -0.0472995 0)
(0.020388 -0.0308581 0)
(-0.0489711 -0.0339169 0)
(-0.0607969 -0.0472284 0)
(-0.0681042 -0.0618665 0)
(-0.0708145 -0.0781003 0)
(-0.068487 -0.0955296 0)
(-0.0608286 -0.113084 0)
(-0.0479454 -0.129017 0)
(-0.0307666 -0.141404 0)
(-0.0110252 -0.148107 0)
(0.00878787 -0.147899 0)
(0.0260698 -0.140842 0)
(0.0387589 -0.128042 0)
(0.0457082 -0.111125 0)
(0.0467315 -0.0918025 0)
(0.0423346 -0.071401 0)
(0.0333595 -0.0505068 0)
(-0.0706688 -0.0502125 0)
(-0.0827992 -0.0668445 0)
(-0.0894195 -0.0851644 0)
(-0.0904915 -0.105271 0)
(-0.0855262 -0.126478 0)
(-0.0742855 -0.147333 0)
(-0.0571039 -0.165768 0)
(-0.035257 -0.179536 0)
(-0.0109069 -0.186442 0)
(0.013116 -0.185499 0)
(0.0340206 -0.176974 0)
(0.0496682 -0.16219 0)
(0.0588739 -0.142878 0)
(0.0614298 -0.120846 0)
(0.0577817 -0.0974685 0)
(0.0487252 -0.0732915 0)
(-0.0946784 -0.0692856 0)
(-0.105869 -0.0890593 0)
(-0.110749 -0.110816 0)
(-0.109285 -0.134378 0)
(-0.100986 -0.158732 0)
(-0.0857404 -0.182106 0)
(-0.0641815 -0.202242 0)
(-0.0378557 -0.216582 0)
(-0.00930177 -0.223217 0)
(0.0184772 -0.2214 0)
(0.0426556 -0.211662 0)
(0.0610894 -0.195362 0)
(0.0726172 -0.174335 0)
(0.0770104 -0.150396 0)
(0.0747012 -0.125 0)
(0.0664299 -0.0985908 0)
(-0.120367 -0.0911609 0)
(-0.129508 -0.113935 0)
(-0.13163 -0.138814 0)
(-0.126812 -0.165347 0)
(-0.11459 -0.192206 0)
(-0.0950293 -0.217346 0)
(-0.0690331 -0.238304 0)
(-0.0384693 -0.252586 0)
(-0.00607833 -0.258571 0)
(0.0250959 -0.255835 0)
(0.0522616 -0.245023 0)
(0.0733398 -0.227574 0)
(0.0872514 -0.205384 0)
(0.0937521 -0.180197 0)
(0.0932542 -0.153517 0)
(0.086509 -0.125764 0)
(-0.14707 -0.115949 0)
(-0.153124 -0.14155 0)
(-0.151595 -0.169226 0)
(-0.142676 -0.198209 0)
(-0.126004 -0.226854 0)
(-0.101892 -0.252948 0)
(-0.0714898 -0.273934 0)
(-0.0369312 -0.287602 0)
(-0.00102548 -0.292674 0)
(0.0332179 -0.288899 0)
(0.0631036 -0.277052 0)
(0.0867297 -0.258731 0)
(0.103089 -0.235789 0)
(0.11196 -0.209924 0)
(0.113669 -0.182544 0)
(0.109095 -0.154154 0)
(-0.174027 -0.143825 0)
(-0.175992 -0.17203 0)
(-0.170006 -0.202117 0)
(-0.156333 -0.23293 0)
(-0.134796 -0.262597 0)
(-0.105966 -0.288793 0)
(-0.0712684 -0.309127 0)
(-0.0329677 -0.321735 0)
(0.00612956 -0.325564 0)
(0.0431204 -0.32057 0)
(0.0755358 -0.307766 0)
(0.101643 -0.288765 0)
(0.120526 -0.265364 0)
(0.131975 -0.239197 0)
(0.136293 -0.211588 0)
(0.134425 -0.183051 0)
(-0.200376 -0.17509 0)
(-0.197302 -0.20559 0)
(-0.186068 -0.237557 0)
(-0.167064 -0.269485 0)
(-0.140357 -0.29934 0)
(-0.106783 -0.324851 0)
(-0.0679578 -0.34391 0)
(-0.0262171 -0.354938 0)
(0.0157195 -0.357145 0)
(0.0551969 -0.350839 0)
(0.0899867 -0.337114 0)
(0.118539 -0.317548 0)
(0.140029 -0.293853 0)
(0.154272 -0.2676 0)
(0.161555 -0.240063 0)
(0.162854 -0.211687 0)
(-0.225049 -0.210181 0)
(-0.216026 -0.242561 0)
(-0.19882 -0.275749 0)
(-0.174004 -0.307946 0)
(-0.141944 -0.33709 0)
(-0.103685 -0.36108 0)
(-0.0610082 -0.378145 0)
(-0.0162025 -0.387022 0)
(0.0282408 -0.38734 0)
(0.069966 -0.37962 0)
(0.107 -0.364956 0)
(0.137978 -0.344844 0)
(0.162174 -0.320896 0)
(0.179427 -0.294616 0)
(0.189988 -0.267229 0)
(0.194922 -0.239126 0)
(-0.246698 -0.249759 0)
(-0.230813 -0.283423 0)
(-0.20695 -0.316969 0)
(-0.175955 -0.348392 0)
(-0.138488 -0.375745 0)
(-0.0958007 -0.397242 0)
(-0.0496705 -0.411538 0)
(-0.00223215 -0.417821 0)
(0.0443762 -0.416004 0)
(0.0881027 -0.406694 0)
(0.127247 -0.390987 0)
(0.160663 -0.370269 0)
(0.187711 -0.34598 0)
(0.208202 -0.319521 0)
(0.222372 -0.2921 0)
(0.231374 -0.264132 0)
(-0.263188 -0.294647 0)
(-0.239549 -0.32869 0)
(-0.208518 -0.361369 0)
(-0.171224 -0.390673 0)
(-0.128612 -0.414965 0)
(-0.0819425 -0.432925 0)
(-0.0328974 -0.443672 0)
(0.0166457 -0.446828 0)
(0.0649336 -0.442546 0)
(0.11032 -0.431431 0)
(0.151454 -0.414496 0)
(0.187365 -0.392992 0)
(0.217436 -0.368174 0)
(0.241481 -0.341249 0)
(0.259727 -0.313298 0)
(0.273213 -0.284819 0)
(-0.271249 -0.345757 0)
(-0.239006 -0.378702 0)
(-0.20058 -0.408685 0)
(-0.157325 -0.434056 0)
(-0.110259 -0.453753 0)
(-0.0605685 -0.467046 0)
(-0.00957882 -0.473477 0)
(0.0413048 -0.473004 0)
(0.090737 -0.465904 0)
(0.13747 -0.452751 0)
(0.180495 -0.434329 0)
(0.21896 -0.411648 0)
(0.252292 -0.385782 0)
(0.280316 -0.357736 0)
(0.303123 -0.328482 0)
(0.321594 -0.298414 0)
(-0.265467 -0.403306 0)
(-0.22452 -0.432543 0)
(-0.179567 -0.457047 0)
(-0.13166 -0.476177 0)
(-0.0816443 -0.489584 0)
(-0.0303411 -0.497056 0)
(0.0213553 -0.498517 0)
(0.0725327 -0.494054 0)
(0.122309 -0.483908 0)
(0.169852 -0.468473 0)
(0.214419 -0.448282 0)
(0.255363 -0.42398 0)
(0.292232 -0.39631 0)
(0.324761 -0.36602 0)
(0.352906 -0.333823 0)
(0.377143 -0.300024 0)
(-0.235949 -0.458612 0)
(-0.189861 -0.479531 0)
(-0.141944 -0.495832 0)
(-0.0926605 -0.507357 0)
(-0.0424847 -0.513996 0)
(0.00810036 -0.515685 0)
(0.0586074 -0.512408 0)
(0.10855 -0.504196 0)
(0.157447 -0.491129 0)
(0.204828 -0.473331 0)
(0.250236 -0.450975 0)
(0.293235 -0.424276 0)
(0.333409 -0.393491 0)
(0.370372 -0.358917 0)
(0.403769 -0.320886 0)
(0.433277 -0.279764 0)
)
;

boundaryField
{
    walls
    {
        type            cellMotion;
        value           uniform (0 0 0);
    }
    cylinder
    {
        type            cellMotion;
        value           nonuniform List<vector> 
64
(
(0.458612 -0.235949 0)
(0.479531 -0.189861 0)
(0.495832 -0.141944 0)
(0.507357 -0.0926605 0)
(0.513996 -0.0424847 0)
(0.515685 0.00810036 0)
(0.512408 0.0586074 0)
(0.504196 0.10855 0)
(0.491129 0.157447 0)
(0.473331 0.204828 0)
(0.450975 0.250236 0)
(0.424276 0.293235 0)
(0.393491 0.333409 0)
(0.358917 0.370372 0)
(0.320886 0.403769 0)
(0.279764 0.433277 0)
(0.235949 0.458612 0)
(0.189861 0.479531 0)
(0.141944 0.495832 0)
(0.0926605 0.507357 0)
(0.0424847 0.513996 0)
(-0.00810036 0.515685 0)
(-0.0586074 0.512408 0)
(-0.10855 0.504196 0)
(-0.157447 0.491129 0)
(-0.204828 0.473331 0)
(-0.250236 0.450975 0)
(-0.293235 0.424276 0)
(-0.333409 0.393491 0)
(-0.370372 0.358917 0)
(-0.403769 0.320886 0)
(-0.433277 0.279764 0)
(-0.458612 0.235949 0)
(-0.479531 0.189861 0)
(-0.495832 0.141944 0)
(-0.507357 0.0926605 0)
(-0.513996 0.0424847 0)
(-0.515685 -0.00810036 0)
(-0.512408 -0.0586074 0)
(-0.504196 -0.10855 0)
(-0.491129 -0.157447 0)
(-0.473331 -0.204828 0)
(-0.450975 -0.250236 0)
(-0.424276 -0.293235 0)
(-0.393491 -0.333409 0)
(-0.358917 -0.370372 0)
(-0.320886 -0.403769 0)
(-0.279764 -0.433277 0)
(-0.235949 -0.458612 0)
(-0.189861 -0.479531 0)
(-0.141944 -0.495832 0)
(-0.0926605 -0.507357 0)
(-0.0424847 -0.513996 0)
(0.00810036 -0.515685 0)
(0.0586074 -0.512408 0)
(0.10855 -0.504196 0)
(0.157447 -0.491129 0)
(0.204828 -0.473331 0)
(0.250236 -0.450975 0)
(0.293235 -0.424276 0)
(0.333409 -0.393491 0)
(0.370372 -0.358917 0)
(0.403769 -0.320886 0)
(0.433277 -0.279764 0)
)
;
    }
    outlet
    {
        type            cellMotion;
        value           uniform (0 0 0);
    }
    inlet
    {
        type            cellMotion;
        value           uniform (0 0 0);
    }
    frontAndBack
    {
        type            empty;
    }
}


// ************************************************************************* //
