/*--------------------------------*- C++ -*----------------------------------*\
| =========                 |                                                 |
| \\      /  F ield         | OpenFOAM: The Open Source CFD Toolbox           |
|  \\    /   O peration     | Version:  2412                                  |
|   \\  /    A nd           | Website:  www.openfoam.com                      |
|    \\/     M anipulation  |                                                 |
\*---------------------------------------------------------------------------*/
FoamFile
{
    version     2.0;
    format      ascii;
    arch        "LSB;label=32;scalar=64";
    class       surfaceScalarField;
    location    "1";
    object      meshPhi;
}
// * * * * * * * * * * * * * * * * * * * * * * * * * * * * * * * * * * * * * //

dimensions      [0 3 -1 0 0 0 0];

internalField   nonuniform List<scalar> 
1984
(
8.879e-05
-0.000523826
-8.69539e-05
0.000111488
-0.000724
0.000139223
-0.000983055
0.000166816
-0.00121599
0.000193878
-0.00139615
0.000224963
-0.00149192
0.000262704
-0.00147571
0.000311868
-0.0013314
0.000359438
-0.00107596
0.000382017
-0.00075475
0.000404843
-0.000418546
0.00039303
-0.000151633
0.000322351
-7.82269e-06
0.000243933
6.20777e-05
0.000157078
0.000124783
0.000138946
8.48051e-05
0.000297786
-0.00121511
-0.000293057
0.000376051
-0.00158804
0.000452929
-0.00203543
0.000528357
-0.0023953
0.000605168
-0.00265298
0.000689366
-0.00276836
0.000790373
-0.00268841
0.000920835
-0.00238814
0.00104437
-0.00190427
0.00110839
-0.00131971
0.00119387
-0.000722482
0.00116797
-0.00026076
0.000964113
-2.40334e-05
0.000749481
9.25444e-05
0.000489523
0.000177358
0.000157236
0.000278867
0.000577917
-0.00204089
-0.000571473
0.00071244
-0.00254741
0.00082838
-0.00309697
0.000941473
-0.00351283
0.0010568
-0.00378626
0.00117805
-0.0038675
0.00132338
-0.00369203
0.00150491
-0.00323385
0.00166959
-0.0025494
0.00176361
-0.00174962
0.0019506
-0.000941984
0.00192853
-0.000344633
0.00159106
-7.03362e-05
0.00127884
7.29388e-05
0.000861788
0.000165401
9.41173e-05
0.000535411
0.000937513
-0.00292115
-0.000934544
0.00112562
-0.00352092
0.00127622
-0.00412834
0.00141382
-0.00453658
0.00155367
-0.00474725
0.00169787
-0.00473881
0.00187018
-0.00444381
0.00207339
-0.00383409
0.00224801
-0.00298541
0.00234468
-0.00202986
0.00256149
-0.00114798
0.00254206
-0.000557603
0.00216943
-0.0002341
0.00181318
-2.69235e-06
0.00127901
0.000107064
-1.15943e-05
0.000873909
0.00137983
-0.00379475
-0.00138364
0.00162129
-0.0044623
0.00180625
-0.00507744
0.00195593
-0.00544091
0.00210222
-0.00555716
0.00225785
-0.00543131
0.00243811
-0.00501065
0.00263412
-0.00426509
0.00279553
-0.00329149
0.00286449
-0.00225474
0.00290557
-0.00140293
0.00286155
-0.000858951
0.00267103
-0.000437953
0.00233497
-0.000100705
0.00174664
1.89073e-05
-0.000127426
0.00130874
0.00191394
-0.00460781
-0.00192612
0.00219834
-0.00528956
0.00241995
-0.0058783
0.00257566
-0.00618251
0.00270751
-0.00617385
0.00285638
-0.00589855
0.00302348
-0.0053476
0.00319011
-0.00449687
0.00332582
-0.00344645
0.00337245
-0.00238315
0.00323596
-0.00153559
0.00315992
-0.00095434
0.00315132
-0.000488953
0.00285176
-0.000163753
0.00226688
-6.68816e-05
-0.000229876
0.00184748
0.002562
-0.00532814
-0.00258369
0.00286784
-0.00598765
0.00311738
-0.00649731
0.00327831
-0.00671923
0.00338438
-0.0066008
0.00349631
-0.00618488
0.00362182
-0.00550391
0.00374629
-0.00457024
0.00385526
-0.00348106
0.00390283
-0.0024097
0.00379026
-0.00153494
0.00371938
-0.000907263
0.00369018
-0.000460863
0.00339601
-0.000193138
0.00284785
-0.000125398
-0.000300805
0.00249275
0.0033535
-0.00595087
-0.00339241
0.00364604
-0.00651807
0.00389932
-0.00689126
0.00406382
-0.00701761
0.00413845
-0.00681251
0.00418156
-0.00628463
0.00423636
-0.00549287
0.00431212
-0.00449943
0.0043943
-0.00340095
0.00444678
-0.00234665
0.004425
-0.00148696
0.00438202
-0.000864032
0.00428502
-0.000439345
0.00400203
-0.000202234
0.00351832
-0.000151146
-0.000325987
0.00326748
0.00430687
-0.00639594
-0.00438097
0.00454063
-0.00683164
0.00475475
-0.00701767
0.00490763
-0.00701626
0.00494848
-0.00674784
0.00490949
-0.0061677
0.00488
-0.00531699
0.0048979
-0.00429272
0.00494545
-0.00320896
0.00499582
-0.00219716
0.00502015
-0.00138526
0.00500535
-0.000801558
0.00491578
-0.000407215
0.0046872
-0.000194645
0.00431344
-0.000151558
-0.000313
0.00420081
0.00543332
-0.00662369
-0.00557011
0.00555843
-0.00689882
0.00567815
-0.00687763
0.00577443
-0.00671594
0.00577277
-0.00638843
0.00566967
-0.00581676
0.00556217
-0.00498749
0.00551272
-0.00399504
0.00551495
-0.00296167
0.00555539
-0.00201511
0.00560461
-0.00126196
0.00563146
-0.000723354
0.00559881
-0.000366369
0.00547554
-0.000173035
0.00526764
-0.000126628
-0.000268508
0.00532102
0.00672083
-0.00657727
-0.00694157
0.00670497
-0.00670967
0.00667058
-0.006493
0.00663567
-0.00615295
0.00656076
-0.00572629
0.00641362
-0.00516102
0.0062519
-0.00441327
0.0061457
-0.00353495
0.00610985
-0.00262202
0.00614314
-0.00178429
0.00622046
-0.00111722
0.00630635
-0.000635435
0.0063724
-0.000314513
0.00640593
-0.000136383
0.00641027
-8.91711e-05
-0.000216259
0.00665818
0.008131
-0.00612643
-0.00845038
0.00794658
-0.00613911
0.00771852
-0.00577088
0.0074979
-0.00528706
0.00730151
-0.00475814
0.00709923
-0.00418531
0.00690875
-0.00353971
0.00677924
-0.0028315
0.00673912
-0.00211379
0.00678399
-0.00145629
0.00690581
-0.00091739
0.00707882
-0.00051604
0.00727985
-0.000243035
0.00749827
-8.88813e-05
0.00773848
-4.82174e-05
-0.000152626
0.00819625
0.00959398
-0.00509373
-0.0100389
0.00920918
-0.00501604
0.00877232
-0.00458024
0.00835304
-0.00404945
0.00799975
-0.00350368
0.00771586
-0.00297178
0.00749884
-0.00244872
0.00737452
-0.00192865
0.00736414
-0.00143286
0.00745615
-0.000989706
0.0076511
-0.000609542
0.00794433
-0.000309983
0.00830446
-0.000106922
0.00872012
8.60042e-06
0.00919265
4.32919e-05
-2.84984e-05
0.00985189
0.0109994
-0.00342302
-0.0115865
0.0103883
-0.00331752
0.00973054
-0.00293264
0.00912176
-0.00248954
0.00862075
-0.00205611
0.00824825
-0.00166097
0.00799998
-0.00130154
0.00788584
-0.000969388
0.00791588
-0.000668735
0.00808125
-0.000405688
0.00837442
-0.000175715
0.0087997
1.19384e-05
0.00932972
0.000141896
0.00994668
0.00022181
0.0106439
0.000254974
0.000225157
0.0114844
0.0120398
-0.00127821
-0.0128204
0.0111842
-0.00118486
0.0103454
-0.000995033
0.00961088
-0.000787948
0.00902511
-0.000590212
0.00860203
-0.000410296
0.00834288
-0.000246951
0.00824725
-9.71031e-05
0.0083199
4.00202e-05
0.00855997
0.000162225
0.00895526
0.00026881
0.00949878
0.000358838
0.0101746
0.000430235
0.0109628
0.000483423
0.0118399
0.000517678
0.000530954
0.0127906
0.0110263
-0.0120343
0.0100643
0.00922102
0.00853251
0.00801373
0.00766965
0.00749967
0.00749863
0.00766032
0.00797697
0.00843232
0.00900796
0.0096843
0.0104371
0.0112341
0.0120326
5.8273e-05
-0.00033988
7.54285e-05
-0.000539303
0.000111271
-0.00083311
0.000151666
-0.00109969
0.000189045
-0.00129933
0.00022619
-0.00140309
0.000266008
-0.00139421
0.000314861
-0.00125995
0.000361404
-0.0010184
0.000382809
-0.000713299
0.000404346
-0.000389369
0.000391483
-0.000126124
0.000318661
2.11348e-05
0.000234878
9.69995e-05
0.000135619
0.000161281
0.000169667
5.57154e-05
0.000218985
-0.00085013
0.000279148
-0.00123612
0.000373727
-0.00175195
0.000483314
-0.00218215
0.000590167
-0.00248629
0.000692355
-0.00262302
0.000800196
-0.00255352
0.000930249
-0.00226465
0.0010508
-0.00179965
0.00111087
-0.00124134
0.00119209
-0.000666615
0.0011624
-0.000212101
0.000951037
3.08682e-05
0.000719687
0.000157394
0.000427666
0.00024208
0.000213369
0.000198328
0.000473552
-0.00151035
0.000579375
-0.00205169
0.000714143
-0.00270687
0.000873831
-0.00323123
0.00103391
-0.00358137
0.00118337
-0.00369911
0.00134015
-0.00353446
0.00152177
-0.00308157
0.00168173
-0.00241226
0.00176866
-0.00164212
0.00194796
-0.000862985
0.00191805
-0.00027488
0.0015664
8.19095e-06
0.00122738
0.000163903
0.000769064
0.000255366
0.000177489
0.000421883
0.000825593
-0.00224924
0.000982748
-0.00291187
0.00114958
-0.00366044
0.00133756
-0.00421336
0.00152914
-0.00453244
0.00170813
-0.00457599
0.00189489
-0.00429015
0.00209861
-0.00367355
0.00226699
-0.00283026
0.00235377
-0.00190221
0.00255899
-0.00105037
0.00252672
-0.000469441
0.00213334
-0.000133835
0.00174386
0.000112679
0.00116933
0.000222319
0.000101208
0.000748291
0.00128253
-0.00303353
0.00149608
-0.00378462
0.00169072
-0.00456885
0.00188672
-0.00510604
0.00208447
-0.00535484
0.00227644
-0.00529302
0.00247207
-0.00487796
0.00266844
-0.00411186
0.00282213
-0.00312997
0.00287882
-0.00211348
0.00290415
-0.00128971
0.00284187
-0.000752837
0.00262541
-0.000317031
0.00225482
3.65001e-05
0.00163497
0.000157215
1.02591e-05
0.00118888
0.00184796
-0.00378867
0.0021156
-0.00458453
0.00233904
-0.00537068
0.00252898
-0.00586398
0.00270491
-0.00599953
0.00288677
-0.00579534
0.00306784
-0.00524531
0.00323359
-0.00435943
0.00336014
-0.00328429
0.00339252
-0.002231
0.00323649
-0.00140697
0.00313712
-0.000830284
0.0030995
-0.000349804
0.00276951
-9.36519e-06
0.00216578
8.60647e-05
-8.07236e-05
0.00174523
0.00252282
-0.00447291
0.00283851
-0.00527534
0.00308588
-0.00601191
0.00326582
-0.00643328
0.00340332
-0.00645927
0.00354112
-0.00611341
0.00367672
-0.00542854
0.0037977
-0.00444549
0.00389611
-0.00331378
0.00392805
-0.00224232
0.00379287
-0.00138811
0.00369452
-0.000765261
0.00363611
-0.000307832
0.00331934
-3.19571e-05
0.00276517
2.76982e-05
-0.000157585
0.00241311
0.00331546
-0.00505715
0.00365219
-0.00579723
0.00391592
-0.00642854
0.00409037
-0.00676544
0.00418277
-0.00669937
0.004242
-0.00623406
0.00430042
-0.00543054
0.00436873
-0.00437445
0.00443897
-0.00322015
0.00447516
-0.00215843
0.00442864
-0.00131855
0.00435572
-0.000705958
0.00423241
-0.00028078
0.00393578
-4.75715e-05
0.00345562
-1.43107e-05
-0.000208471
0.00320775
0.00423153
-0.00550482
0.00454566
-0.0061192
0.00479892
-0.00657549
0.00496643
-0.00678702
0.00501751
-0.00665112
0.00498475
-0.00612486
0.00495044
-0.00525349
0.00495592
-0.00415679
0.00498933
-0.00300516
0.00502371
-0.00198137
0.00502281
-0.0011956
0.00497875
-0.000632452
0.00486746
-0.000252041
0.0046323
-5.82224e-05
0.00426662
-4.40573e-05
-0.000235232
0.00415244
0.00529711
-0.00578596
0.0055304
-0.00622675
0.00571836
-0.00645527
0.00584737
-0.00649509
0.00585952
-0.00629244
0.00575827
-0.00577216
0.00563855
-0.00491966
0.00556826
-0.00384747
0.00555183
-0.00274056
0.00557768
-0.0017785
0.00560534
-0.00105333
0.0056064
-0.000546584
0.00555714
-0.000217789
0.00543096
-5.64304e-05
0.0052283
-4.90894e-05
-0.000224723
0.005272
0.00654024
-0.00584855
0.00663621
-0.0061085
0.00668841
-0.00609988
0.00670448
-0.00593292
0.00665547
-0.00562301
0.00651479
-0.00511374
0.00633801
-0.00435505
0.00619664
-0.00340556
0.00613407
-0.00241558
0.00615429
-0.00155344
0.00621801
-0.000906066
0.00628617
-0.000457917
0.00633963
-0.00017097
0.00636837
-3.12197e-05
0.00636706
-2.59063e-05
-0.00017879
0.00659551
0.00795281
-0.00556196
0.00786086
-0.00565531
0.00771426
-0.0054346
0.00755132
-0.00508104
0.00739283
-0.00465238
0.00720943
-0.00414453
0.00700604
-0.00351361
0.00683142
-0.002759
0.0067511
-0.00196852
0.00678186
-0.00126958
0.00689883
-0.000732247
0.00706612
-0.000352934
0.00725627
-0.000109535
0.00746229
8.84915e-06
0.00768409
1.7751e-05
-0.000103574
0.00811918
0.00945532
-0.00474382
0.00913374
-0.00469738
0.00875616
-0.00434155
0.008387
-0.00388978
0.0080748
-0.00341552
0.00782005
-0.00294449
0.00759802
-0.00245273
0.00743443
-0.00191742
0.00737677
-0.00137207
0.00744939
-0.00087927
0.00764446
-0.000479681
0.00793747
-0.000185975
0.00828969
-3.58205e-06
0.00868708
8.64323e-05
0.00913699
0.000104013
1.90112e-05
0.00978214
0.010916
-0.00328206
0.0103407
-0.00317365
0.0097171
-0.00281593
0.00913965
-0.0024047
0.0086703
-0.0020068
0.00832225
-0.00164634
0.00807854
-0.00131184
0.0079426
-0.000983669
0.00794092
-0.000662531
0.00808454
-0.000367875
0.00837551
-0.000116424
0.00879799
7.49384e-05
0.00932498
0.000195382
0.00992731
0.00026178
0.0106095
0.000286621
0.000250052
0.0114452
0.0120134
-0.00125158
0.0111707
-0.00115431
0.0103436
-0.000967997
0.0096204
-0.000766947
0.00904827
-0.000577183
0.00863575
-0.000406364
0.00838147
-0.000250502
0.00828056
-0.000103586
0.00834399
3.64996e-05
0.0085715
0.000166492
0.00896187
0.00028044
0.00950214
0.000372969
0.0101772
0.00044261
0.0109597
0.000492027
0.0118315
0.000523518
0.000535711
0.0127805
0.0110245
0.0100636
0.00922167
0.00853478
0.00801807
0.00767592
0.00750687
0.00750622
0.00766729
0.00798174
0.00843515
0.00901002
0.00968606
0.0104383
0.0112343
0.0120325
4.36216e-05
-0.000204241
7.88995e-05
-0.000466585
0.000123689
-0.000820582
0.000167484
-0.00113817
0.000204235
-0.00139894
0.000238636
-0.00156991
0.000273798
-0.00162446
0.000317133
-0.0015305
0.00035883
-0.00129243
0.000376608
-0.000963251
0.000395899
-0.000607479
0.000381158
-0.000318748
0.000306968
-0.000153082
0.000223848
-6.03824e-05
0.000128344
2.45529e-05
6.40169e-05
5.27967e-05
0.000176709
-0.000618665
0.000285264
-0.00109185
0.00040667
-0.00170158
0.00052662
-0.00222166
0.000631849
-0.00263596
0.000726197
-0.00290007
0.000820239
-0.00295714
0.000933881
-0.00274978
0.00104017
-0.00229462
0.00109022
-0.00169735
0.00116522
-0.00107098
0.00113094
-0.000571954
0.000917102
-0.000293843
0.000689226
-0.000134095
0.000407886
-7.40397e-06
1.42127e-05
0.000188768
0.000411018
-0.00122592
0.000581976
-0.00185068
0.000757633
-0.00260826
0.000933409
-0.00324322
0.0010918
-0.00373748
0.0012297
-0.00403446
0.00136548
-0.00405213
0.00152111
-0.00371825
0.00165867
-0.00306876
0.00173052
-0.00225233
0.00190051
-0.00140958
0.00186432
-0.000766532
0.0015108
-0.00043893
0.00117918
-0.000236509
0.000735404
-8.70807e-05
-0.000108377
0.000398934
0.00075274
-0.00194888
0.000977689
-0.00267341
0.00119145
-0.00351069
0.00139974
-0.00417687
0.00159111
-0.00466059
0.00175753
-0.00492207
0.00191954
-0.00486298
0.00209012
-0.00439827
0.00222981
-0.00358837
0.00229737
-0.0026157
0.00249074
-0.00169986
0.00245101
-0.00106188
0.00205656
-0.00067613
0.00167684
-0.000374224
0.00111517
-0.00019871
-0.000265395
0.000700795
0.00120804
-0.00274567
0.00147989
-0.00352982
0.00171846
-0.00437551
0.00193683
-0.00501201
0.00213735
-0.00542928
0.00231987
-0.00560532
0.00249119
-0.00544587
0.00265118
-0.00485843
0.00277214
-0.00392961
0.00280601
-0.00288027
0.00281718
-0.00199785
0.00274617
-0.00140833
0.00252821
-0.000923781
0.00216589
-0.000511867
0.00155184
-0.000324022
-0.000421446
0.00110671
0.00177733
-0.00353455
0.002084
-0.00433351
0.00234005
-0.00514388
0.00255095
-0.00570754
0.00273452
-0.00599541
0.00291498
-0.00602865
0.00307777
-0.00574895
0.00320899
-0.00506538
0.00330137
-0.00406831
0.003308
-0.00300155
0.0031353
-0.00213375
0.00302514
-0.00151479
0.00298336
-0.00098933
0.00265525
-0.000592228
0.00204777
-0.00043087
-0.000551358
0.00162349
0.0024567
-0.0042641
0.00278649
-0.00504362
0.00304895
-0.00576544
0.00324444
-0.0062159
0.00339545
-0.00635799
0.00354463
-0.00622738
0.00367479
-0.00581415
0.00376875
-0.00505746
0.00383446
-0.00403634
0.00383828
-0.00297813
0.0036835
-0.00209731
0.00357125
-0.0014437
0.00350319
-0.000947748
0.00317851
-0.000617991
0.00261131
-0.000494604
-0.000635845
0.00225324
0.00325054
-0.00489813
0.00357598
-0.00559716
0.00383281
-0.00617607
0.00401321
-0.00649167
0.00412421
-0.00648749
0.00421169
-0.00619736
0.00428475
-0.00565974
0.0043399
-0.00485544
0.00438145
-0.00384741
0.00438795
-0.00282749
0.00431877
-0.00198013
0.00422751
-0.00134799
0.00408654
-0.000889037
0.00377167
-0.000604608
0.00327246
-0.000508926
-0.000657717
0.00301968
0.00416218
-0.00539147
0.00444285
-0.00595199
0.00466625
-0.00632573
0.00482694
-0.00646664
0.00489777
-0.0063291
0.00491194
-0.00591977
0.00491834
-0.00529813
0.00493028
-0.0044805
0.00494296
-0.00351716
0.00494697
-0.00256754
0.00491992
-0.00178918
0.00485218
-0.00121256
0.00471566
-0.000799827
0.00445493
-0.000555194
0.0040695
-0.00047909
-0.000621996
0.00395469
0.00521659
-0.00569835
0.00540211
-0.00608216
0.00554366
-0.00621512
0.00564975
-0.00614888
0.00567613
-0.00588024
0.00563477
-0.00541427
0.00558342
-0.00478089
0.0055455
-0.00400144
0.00552228
-0.00312022
0.00551857
-0.00226374
0.00551561
-0.00156098
0.00548881
-0.00104252
0.00540992
-0.00068191
0.00525658
-0.000471477
0.00504019
-0.000403838
-0.000533609
0.00508964
0.00644615
-0.00576119
0.00649281
-0.00597632
0.00649378
-0.00588271
0.00646936
-0.00560084
0.00641907
-0.00518306
0.00633835
-0.00467294
0.00624833
-0.00407717
0.00617187
-0.00339344
0.00612352
-0.0026424
0.00611942
-0.00190883
0.00614865
-0.00130213
0.0061857
-0.000849756
0.00621074
-0.00053696
0.00621783
-0.000355208
0.00621494
-0.00029845
-0.000419512
0.00645556
0.00785431
-0.00547419
0.00772606
-0.00554339
0.00753394
-0.00526992
0.00731582
-0.00481891
0.00713543
-0.00427597
0.00699421
-0.0037227
0.00687802
-0.00317796
0.00679219
-0.00262027
0.00675412
-0.00204016
0.00677313
-0.00147912
0.00685696
-0.000998448
0.00699139
-0.000628777
0.0071595
-0.000371245
0.00735507
-0.000223229
0.00758709
-0.00018228
-0.000285282
0.00803444
0.00937474
-0.00468162
0.00903669
-0.00462903
0.00862299
-0.00425
0.0081966
-0.00373312
0.007849
-0.00316991
0.00760868
-0.00263946
0.00745441
-0.00216908
0.00737518
-0.00173891
0.00737735
-0.00133366
0.00745694
-0.000959224
0.00762762
-0.000623003
0.00789403
-0.000349481
0.00822944
-0.000161479
0.00862579
-5.41359e-05
0.00908939
-2.26693e-05
-9.56126e-05
0.00973841
0.0108727
-0.00325671
0.0102931
-0.00314901
0.00964554
-0.00278352
0.00902785
-0.00234404
0.00852443
-0.00190066
0.00817493
-0.001501
0.00796583
-0.00115932
0.00788373
-0.000863483
0.00792748
-0.00060376
0.00808985
-0.000374498
0.00837034
-0.000167366
0.00877918
6.49508e-06
0.00929259
0.000128495
0.00989526
0.000204152
0.0105857
0.000234923
0.000203128
0.0114198
0.0120017
-0.00124716
0.0111577
-0.00114981
0.0103213
-0.000962918
0.00958095
-0.000756342
0.00899141
-0.000555572
0.00857588
-0.000373759
0.00833126
-0.00021298
0.00824919
-7.02434e-05
0.00832882
5.78336e-05
0.00856843
0.000171998
0.00895831
0.000272921
0.00949413
0.000359606
0.0101616
0.000429397
0.0109424
0.000481863
0.0118165
0.000515357
0.000527667
0.0127649
0.0110235
0.0100625
0.00921922
0.00852913
0.0080094
0.00766616
0.00749851
0.00749994
0.007663
0.00797954
0.00843378
0.00900779
0.00968223
0.0104335
0.0112301
0.0120282
3.76692e-05
-0.000249899
6.02306e-05
-0.000459411
9.22373e-05
-0.000734001
0.000131778
-0.000941057
0.000191754
-0.0011083
0.00025138
-0.00125597
0.000292656
-0.00130836
0.000334047
-0.00122678
0.000376509
-0.00103969
0.000413731
-0.000773957
0.000457033
-0.000481137
0.0004519
-0.000254839
0.00035398
-0.000160531
0.000234782
-0.000142424
0.000134929
-0.000112555
-7.0986e-05
0.000159565
-0.000712392
0.000236895
-0.00111185
0.00032394
-0.00159511
0.00043063
-0.00192892
0.000593917
-0.00217183
0.000756371
-0.00236297
0.000872393
-0.00239145
0.00098469
-0.00219945
0.00109548
-0.0018359
0.00119479
-0.00135533
0.00133215
-0.000840639
0.00132106
-0.000459996
0.00104569
-0.000321668
0.000732216
-0.000298557
0.000446923
-0.000257348
-0.000237714
0.000380878
-0.00135651
0.000516742
-0.00191004
0.000648204
-0.00252866
0.000806764
-0.00294758
0.0010358
-0.00321547
0.00126569
-0.00336803
0.00144139
-0.00331073
0.00160356
-0.00298751
0.0017524
-0.0024573
0.00188932
-0.00180217
0.00214226
-0.00112055
0.00213012
-0.000646103
0.00169561
-0.000505142
0.00126715
-0.000476516
0.000833507
-0.000424791
-0.000455763
0.000704666
-0.00210033
0.000903506
-0.00277167
0.00107713
-0.00348374
0.00126996
-0.0039325
0.00152858
-0.00415388
0.0017925
-0.00420407
0.00200884
-0.00401954
0.00219816
-0.00355414
0.00235744
-0.00287997
0.00249292
-0.00210316
0.00277244
-0.00138413
0.00275161
-0.000949644
0.00227767
-0.000785838
0.00182108
-0.000679607
0.00128576
-0.000607427
-0.000702852
0.00113765
-0.0029036
0.00140123
-0.00365902
0.00161379
-0.00440518
0.00182049
-0.00484149
0.0020774
-0.00498335
0.00234958
-0.00490276
0.0025837
-0.00457643
0.00277544
-0.00397338
0.00292394
-0.00318158
0.00302173
-0.00234484
0.0031073
-0.0016921
0.00305102
-0.00133568
0.00277841
-0.00108677
0.00237545
-0.000874573
0.00179495
-0.000789987
-0.000936471
0.0016829
-0.00368615
0.00200479
-0.00448158
0.00225446
-0.00522565
0.0024596
-0.00562145
0.0026848
-0.00564681
0.00293778
-0.00540484
0.00316422
-0.0049303
0.00333814
-0.00421074
0.00346567
-0.00334032
0.00352976
-0.00248961
0.00341356
-0.00186178
0.00332281
-0.00148619
0.00326738
-0.00120048
0.00293353
-0.00100025
0.00235429
-0.000942697
-0.00113147
0.00234062
-0.00440123
0.00271069
-0.00519701
0.00298947
-0.00588787
0.00318708
-0.00621777
0.00336288
-0.00613547
0.00356136
-0.00573949
0.0037479
-0.00511712
0.00389145
-0.00429861
0.00399954
-0.00337604
0.00405523
-0.00251517
0.0039494
-0.00187056
0.00387383
-0.00146111
0.00383354
-0.00120022
0.00352626
-0.00106037
0.00297465
-0.00103394
-0.00124019
0.00311963
-0.00501598
0.00350659
-0.00574235
0.00380344
-0.00632659
0.00399542
-0.00657953
0.00411573
-0.00641116
0.00422615
-0.00589109
0.00434055
-0.00514011
0.00444575
-0.00423943
0.00453702
-0.003288
0.00459705
-0.00243732
0.0045815
-0.00181044
0.00455047
-0.00140918
0.00446542
-0.00117118
0.00417882
-0.00106338
0.00369293
-0.0010534
-0.00126637
0.00402767
-0.00549161
0.00438275
-0.00608474
0.00466619
-0.00649174
0.00484865
-0.00662655
0.00491944
-0.00639878
0.00493116
-0.00582113
0.00495739
-0.00499549
0.00501378
-0.00404021
0.00508161
-0.00307516
0.005147
-0.00224527
0.00518647
-0.00165361
0.00519599
-0.00128213
0.0051275
-0.00107029
0.00490885
-0.00098443
0.00454274
-0.000982896
-0.00118339
0.00509401
-0.00579452
0.00535385
-0.00620634
0.00556359
-0.00638324
0.0057027
-0.00635328
0.00572897
-0.0060718
0.00566768
-0.00550798
0.00561297
-0.00469626
0.00560795
-0.00374831
0.00564214
-0.00280274
0.00570944
-0.00200163
0.00578563
-0.00143509
0.00583993
-0.00108456
0.0058357
-0.000892406
0.00574024
-0.000822672
0.00555237
-0.000830978
-0.0010188
0.00635015
-0.00586889
0.00645499
-0.00609548
0.00651646
-0.00603583
0.00653593
-0.00580675
0.00649601
-0.00543073
0.00639098
-0.00488573
0.00628203
-0.00416053
0.00621981
-0.00331484
0.00622311
-0.00245865
0.00629179
-0.00172273
0.00639995
-0.00118818
0.00651633
-0.000852723
0.00661841
-0.000678245
0.00669687
-0.000629437
0.00672652
-0.000665031
-0.000852623
0.0077899
-0.00558322
0.00769086
-0.00564587
0.00754083
-0.0053814
0.00737357
-0.00497633
0.00721891
-0.00449553
0.00706461
-0.00395833
0.00692297
-0.00334555
0.00683217
-0.00266456
0.00682638
-0.00197746
0.00690535
-0.00137312
0.0070536
-0.000911352
0.00725623
-0.000605023
0.00750088
-0.000452222
0.00777212
-0.000426119
0.00802669
-0.000472604
-0.000639911
0.00933311
-0.00475894
0.00899601
-0.00469215
0.00860658
-0.00430669
0.00822814
-0.00381976
0.00791634
-0.00331067
0.00768012
-0.00281608
0.00750149
-0.00232529
0.00740572
-0.00182462
0.00741779
-0.00134322
0.00753034
-0.000916034
0.00774116
-0.000560328
0.00805699
-0.000301947
0.00846457
-0.000172734
0.00892654
-0.000151323
0.00940176
-0.000183346
-0.000312275
0.0108425
-0.00328988
0.0102525
-0.00317311
0.0096167
-0.00280192
0.00903095
-0.00237398
0.00856061
-0.00195864
0.00822109
-0.0015844
0.0079984
-0.00124417
0.00789881
-0.000923475
0.00794066
-0.000626321
0.00811159
-0.000363453
0.00840925
-0.000131322
0.00884872
4.89328e-05
0.0094146
0.000149965
0.010065
0.000186527
0.0107551
0.00018595
0.00012588
0.0119828
-0.00125375
0.0111325
-0.00115503
0.0102992
-0.000965831
0.00957204
-0.000760724
0.0089994
-0.000566528
0.00859021
-0.000392043
0.00834197
-0.000233715
0.0082512
-8.64347e-05
0.00832874
4.98369e-05
0.00856878
0.000172825
0.00896243
0.000282075
0.00951137
0.000372873
0.0102033
0.000438475
0.0110046
0.000482433
0.0118722
0.00051003
0.000515337
0.0110191
0.0100568
0.00921359
0.00852584
0.00800907
0.00766761
0.00749923
0.00749934
0.00766194
0.00797845
0.00843284
0.00900926
0.00968841
0.010442
0.0112363
)
;

boundaryField
{
    walls
    {
        type            calculated;
        value           uniform 0;
    }
    cylinder
    {
        type            calculated;
        value           nonuniform List<scalar> 
64
(
2.0182e-12
-3.98439e-12
-2.57325e-12
3.55304e-12
-1.26102e-12
6.94056e-13
2.09138e-12
-1.70164e-12
1.7026e-12
-2.0897e-12
-6.92476e-13
1.26247e-12
-3.55262e-12
2.57483e-12
3.98697e-12
-2.01752e-12
2.0182e-12
-3.98439e-12
-2.57325e-12
3.55304e-12
-1.26102e-12
6.94056e-13
2.09138e-12
-1.70164e-12
1.7026e-12
-2.0897e-12
-6.92476e-13
1.26247e-12
-3.55262e-12
2.57483e-12
3.98697e-12
-2.01752e-12
2.0182e-12
-3.98439e-12
-2.57325e-12
3.55304e-12
-1.26102e-12
6.94056e-13
2.09138e-12
-1.70164e-12
1.7026e-12
-2.0897e-12
-6.92476e-13
1.26247e-12
-3.55262e-12
2.57483e-12
3.98697e-12
-2.01752e-12
2.0182e-12
-3.98439e-12
-2.57325e-12
3.55304e-12
-1.26102e-12
6.94056e-13
2.09138e-12
-1.70164e-12
1.7026e-12
-2.0897e-12
-6.92476e-13
1.26247e-12
-3.55262e-12
2.57483e-12
3.98697e-12
-2.01752e-12
)
;
    }
    outlet
    {
        type            calculated;
        value           uniform 0;
    }
    inlet
    {
        type            calculated;
        value           uniform 0;
    }
    frontAndBack
    {
        type            empty;
    }
}


// ************************************************************************* //
