/*--------------------------------*- C++ -*----------------------------------*\
| =========                 |                                                 |
| \\      /  F ield         | OpenFOAM: The Open Source CFD Toolbox           |
|  \\    /   O peration     | Version:  2412                                  |
|   \\  /    A nd           | Website:  www.openfoam.com                      |
|    \\/     M anipulation  |                                                 |
\*---------------------------------------------------------------------------*/
FoamFile
{
    version     2.0;
    format      ascii;
    arch        "LSB;label=32;scalar=64";
    class       pointVectorField;
    location    "1";
    object      pointDisplacement;
}
// * * * * * * * * * * * * * * * * * * * * * * * * * * * * * * * * * * * * * //

dimensions      [0 1 0 0 0 0 0];

internalField   nonuniform List<vector> 
2176
(
(0 0 0)
(0 0 0)
(0 0 0)
(0 0 0)
(0 0 0)
(0 0 0)
(0 0 0)
(0 0 0)
(0 0 0)
(0 0 0)
(0 0 0)
(0 0 0)
(0 0 0)
(0 0 0)
(0 0 0)
(0 0 0)
(0 0 0)
(0.0059028 -0.00888929 0)
(0.00800991 -0.0115743 0)
(0.0122617 -0.0159226 0)
(0.0169501 -0.0188399 0)
(0.0221897 -0.0201981 0)
(0.0278788 -0.0198335 0)
(0.033651 -0.0176173 0)
(0.0388644 -0.0135706 0)
(0.0427579 -0.00801939 0)
(0.0444938 -0.00165442 0)
(0.0435262 0.00452618 0)
(0.03996 0.00945635 0)
(0.0343593 0.0123603 0)
(0.0275163 0.0129397 0)
(0.0201602 0.0113577 0)
(0.0127738 0.00808073 0)
(0.00889147 0.00589558 0)
(0.0149555 -0.0224105 0)
(0.0190888 -0.0268485 0)
(0.0274028 -0.0342191 0)
(0.0365817 -0.0388008 0)
(0.0467424 -0.0403995 0)
(0.0575822 -0.0387393 0)
(0.068329 -0.0336513 0)
(0.0777815 -0.0252907 0)
(0.0845824 -0.0143753 0)
(0.0873692 -0.00223089 0)
(0.0853804 0.00937959 0)
(0.0788963 0.0186869 0)
(0.0688847 0.0244355 0)
(0.0566298 0.0261211 0)
(0.0433144 0.0239433 0)
(0.0297178 0.0185567 0)
(0.0224151 0.0149354 0)
(0.0268041 -0.0398025 0)
(0.0329694 -0.0451026 0)
(0.0451087 -0.0541568 0)
(0.0585082 -0.059214 0)
(0.0731805 -0.0600415 0)
(0.0885468 -0.0562924 0)
(0.10342 -0.0478323 0)
(0.116159 -0.0350421 0)
(0.124938 -0.0190466 0)
(0.128132 -0.00171651 0)
(0.125057 0.0146265 0)
(0.116196 0.0277974 0)
(0.102805 0.0362807 0)
(0.0864501 0.0394528 0)
(0.06856 0.0374904 0)
(0.0500564 0.0310793 0)
(0.0398091 0.0267663 0)
(0.0413147 -0.0605159 0)
(0.0495892 -0.0658484 0)
(0.065337 -0.0753199 0)
(0.0826654 -0.0797467 0)
(0.101395 -0.078876 0)
(0.12063 -0.0723402 0)
(0.138802 -0.0601115 0)
(0.153925 -0.0428464 0)
(0.163871 -0.0220662 0)
(0.166994 -7.92285e-05 0)
(0.162815 0.0204307 0)
(0.152027 0.0370642 0)
(0.136082 0.0481922 0)
(0.116697 0.0531352 0)
(0.0954227 0.0520301 0)
(0.0732235 0.0455276 0)
(0.0605246 0.0412558 0)
(0.0584107 -0.0839574 0)
(0.0689091 -0.0885543 0)
(0.0880532 -0.0972559 0)
(0.10899 -0.10003 0)
(0.131278 -0.0966223 0)
(0.153694 -0.0866976 0)
(0.174369 -0.0704038 0)
(0.191028 -0.0486831 0)
(0.201441 -0.0234137 0)
(0.204141 0.00276586 0)
(0.19889 0.026989 0)
(0.186559 0.0467806 0)
(0.168713 0.0604868 0)
(0.147148 0.0674143 0)
(0.123473 0.0676729 0)
(0.0986543 0.0618698 0)
(0.0839687 0.058328 0)
(0.0780853 -0.109508 0)
(0.0909394 -0.112663 0)
(0.113259 -0.11949 0)
(0.137436 -0.119665 0)
(0.162739 -0.112971 0)
(0.187638 -0.099152 0)
(0.210013 -0.0785747 0)
(0.227429 -0.0524708 0)
(0.237736 -0.0230132 0)
(0.239755 0.00696259 0)
(0.233484 0.0345369 0)
(0.219917 0.0572491 0)
(0.200685 0.0734864 0)
(0.177611 0.082573 0)
(0.152322 0.0846026 0)
(0.125789 0.0801631 0)
(0.109522 0.077978 0)
(0.100413 -0.136516 0)
(0.115749 -0.137579 0)
(0.141002 -0.141516 0)
(0.168009 -0.138225 0)
(0.195736 -0.127573 0)
(0.222387 -0.109444 0)
(0.245655 -0.0844389 0)
(0.263112 -0.0540661 0)
(0.272858 -0.0207136 0)
(0.273995 0.0127145 0)
(0.266706 0.0433296 0)
(0.252106 0.0687644 0)
(0.231889 0.0875046 0)
(0.207854 0.0989148 0)
(0.181587 0.103064 0)
(0.154065 0.100548 0)
(0.136532 0.100281 0)
(0.125557 -0.164283 0)
(0.143459 -0.162617 0)
(0.171367 -0.16273 0)
(0.20074 -0.155198 0)
(0.230236 -0.140003 0)
(0.257854 -0.117227 0)
(0.281229 -0.087728 0)
(0.298111 -0.0532457 0)
(0.306898 -0.0162834 0)
(0.306929 0.0202736 0)
(0.298577 0.0536532 0)
(0.283089 0.0816552 0)
(0.26218 0.102893 0)
(0.237595 0.116779 0)
(0.210852 0.123365 0)
(0.182899 0.123265 0)
(0.164301 0.125403 0)
(0.153782 -0.192031 0)
(0.174268 -0.186986 0)
(0.204468 -0.18239 0)
(0.235646 -0.16991 0)
(0.26618 -0.149684 0)
(0.293956 -0.122032 0)
(0.316705 -0.0880608 0)
(0.332445 -0.0496768 0)
(0.339854 -0.00941231 0)
(0.338534 0.0299586 0)
(0.329078 0.0658703 0)
(0.312808 0.0963279 0)
(0.291398 0.120078 0)
(0.266527 0.136587 0)
(0.239647 0.145905 0)
(0.211656 0.148659 0)
(0.192052 0.153612 0)
(0.185492 -0.218852 0)
(0.208492 -0.209746 0)
(0.240507 -0.199597 0)
(0.272805 -0.181526 0)
(0.303557 -0.155882 0)
(0.330654 -0.123241 0)
(0.352037 -0.0849151 0)
(0.366027 -0.0429096 0)
(0.371624 0.000315767 0)
(0.368743 0.0422045 0)
(0.358139 0.0804525 0)
(0.341124 0.113281 0)
(0.319299 0.139576 0)
(0.294262 0.158863 0)
(0.267408 0.171191 0)
(0.239578 0.177199 0)
(0.218875 0.18532 0)
(0.22128 -0.243598 0)
(0.246604 -0.229698 0)
(0.279805 -0.21319 0)
(0.312375 -0.188964 0)
(0.342381 -0.15763 0)
(0.367853 -0.120016 0)
(0.387044 -0.0775838 0)
(0.398658 -0.0323277 0)
(0.402062 0.0134886 0)
(0.397424 0.0576058 0)
(0.385572 0.0980034 0)
(0.367773 0.133136 0)
(0.345511 0.162037 0)
(0.320274 0.184276 0)
(0.293395 0.199887 0)
(0.265692 0.209539 0)
(0.243622 0.221127 0)
(0.261961 -0.264619 0)
(0.289229 -0.245106 0)
(0.322723 -0.221488 0)
(0.35445 -0.190684 0)
(0.382525 -0.153589 0)
(0.405281 -0.111232 0)
(0.421388 -0.0651026 0)
(0.429992 -0.01707 0)
(0.430816 0.0308912 0)
(0.424179 0.0768834 0)
(0.410911 0.11922 0)
(0.392197 0.156612 0)
(0.369368 0.188216 0)
(0.343751 0.213624 0)
(0.316569 0.232855 0)
(0.288627 0.246564 0)
(0.264643 0.261842 0)
(0.308519 -0.279398 0)
(0.337024 -0.253283 0)
(0.369457 -0.22193 0)
(0.398786 -0.184417 0)
(0.423438 -0.141853 0)
(0.442231 -0.0953419 0)
(0.454321 -0.0462468 0)
(0.459272 0.00386097 0)
(0.457087 0.0533878 0)
(0.448169 0.100837 0)
(0.433261 0.144895 0)
(0.413378 0.184519 0)
(0.389665 0.218957 0)
(0.363256 0.247819 0)
(0.335218 0.271092 0)
(0.306289 0.289327 0)
(0.279418 0.308443 0)
(0.36171 -0.283838 0)
(0.390153 -0.25007 0)
(0.419344 -0.210899 0)
(0.444082 -0.167249 0)
(0.463467 -0.120181 0)
(0.476914 -0.0706631 0)
(0.484061 -0.0197496 0)
(0.484786 0.031427 0)
(0.479231 0.0817324 0)
(0.467768 0.130091 0)
(0.450967 0.175546 0)
(0.42957 0.217285 0)
(0.404445 0.254679 0)
(0.376483 0.287358 0)
(0.346543 0.315225 0)
(0.315223 0.338624 0)
(0.283851 0.361674 0)
(0.418083 -0.270326 0)
(0.443681 -0.228834 0)
(0.466395 -0.183836 0)
(0.484222 -0.136321 0)
(0.496863 -0.0869852 0)
(0.504136 -0.0364799 0)
(0.505951 0.014526 0)
(0.502313 0.0653394 0)
(0.493332 0.115272 0)
(0.479215 0.163657 0)
(0.460269 0.20987 0)
(0.436883 0.253341 0)
(0.409522 0.293583 0)
(0.378695 0.330216 0)
(0.344924 0.36298 0)
(0.308637 0.391813 0)
(0.27033 0.418074 0)
(0.447021 -0.258479 0)
(0.470204 -0.213418 0)
(0.488858 -0.166303 0)
(0.502805 -0.117585 0)
(0.511909 -0.0677357 0)
(0.516083 -0.0172336 0)
(0.515287 0.0334344 0)
(0.509529 0.0837804 0)
(0.498864 0.13332 0)
(0.483394 0.181575 0)
(0.463269 0.228081 0)
(0.438682 0.272391 0)
(0.409871 0.314078 0)
(0.377112 0.35274 0)
(0.340722 0.388005 0)
(0.30105 0.419533 0)
(0.258479 0.447021 0)
(0 0 0)
(0 0 0)
(0 0 0)
(0 0 0)
(0 0 0)
(0 0 0)
(0 0 0)
(0 0 0)
(0 0 0)
(0 0 0)
(0 0 0)
(0 0 0)
(0 0 0)
(0 0 0)
(0 0 0)
(0 0 0)
(0 0 0)
(0.0059028 -0.00888929 0)
(0.00800991 -0.0115743 0)
(0.0122617 -0.0159226 0)
(0.0169501 -0.0188399 0)
(0.0221897 -0.0201981 0)
(0.0278788 -0.0198335 0)
(0.033651 -0.0176173 0)
(0.0388644 -0.0135706 0)
(0.0427579 -0.00801939 0)
(0.0444938 -0.00165442 0)
(0.0435262 0.00452618 0)
(0.03996 0.00945635 0)
(0.0343593 0.0123603 0)
(0.0275163 0.0129397 0)
(0.0201602 0.0113577 0)
(0.0127738 0.00808073 0)
(0.00889147 0.00589558 0)
(0.0149555 -0.0224105 0)
(0.0190888 -0.0268485 0)
(0.0274028 -0.0342191 0)
(0.0365817 -0.0388008 0)
(0.0467424 -0.0403995 0)
(0.0575822 -0.0387393 0)
(0.068329 -0.0336513 0)
(0.0777815 -0.0252907 0)
(0.0845824 -0.0143753 0)
(0.0873692 -0.00223089 0)
(0.0853804 0.00937959 0)
(0.0788963 0.0186869 0)
(0.0688847 0.0244355 0)
(0.0566298 0.0261211 0)
(0.0433144 0.0239433 0)
(0.0297178 0.0185567 0)
(0.0224151 0.0149354 0)
(0.0268041 -0.0398025 0)
(0.0329694 -0.0451026 0)
(0.0451087 -0.0541568 0)
(0.0585082 -0.059214 0)
(0.0731805 -0.0600415 0)
(0.0885468 -0.0562924 0)
(0.10342 -0.0478323 0)
(0.116159 -0.0350421 0)
(0.124938 -0.0190466 0)
(0.128132 -0.00171651 0)
(0.125057 0.0146265 0)
(0.116196 0.0277974 0)
(0.102805 0.0362807 0)
(0.0864501 0.0394528 0)
(0.06856 0.0374904 0)
(0.0500564 0.0310793 0)
(0.0398091 0.0267663 0)
(0.0413147 -0.0605159 0)
(0.0495892 -0.0658484 0)
(0.065337 -0.0753199 0)
(0.0826654 -0.0797467 0)
(0.101395 -0.078876 0)
(0.12063 -0.0723402 0)
(0.138802 -0.0601115 0)
(0.153925 -0.0428464 0)
(0.163871 -0.0220662 0)
(0.166994 -7.92285e-05 0)
(0.162815 0.0204307 0)
(0.152027 0.0370642 0)
(0.136082 0.0481922 0)
(0.116697 0.0531352 0)
(0.0954227 0.0520301 0)
(0.0732235 0.0455276 0)
(0.0605246 0.0412558 0)
(0.0584107 -0.0839574 0)
(0.0689091 -0.0885543 0)
(0.0880532 -0.0972559 0)
(0.10899 -0.10003 0)
(0.131278 -0.0966223 0)
(0.153694 -0.0866976 0)
(0.174369 -0.0704038 0)
(0.191028 -0.0486831 0)
(0.201441 -0.0234137 0)
(0.204141 0.00276586 0)
(0.19889 0.026989 0)
(0.186559 0.0467806 0)
(0.168713 0.0604868 0)
(0.147148 0.0674143 0)
(0.123473 0.0676729 0)
(0.0986543 0.0618698 0)
(0.0839687 0.058328 0)
(0.0780853 -0.109508 0)
(0.0909394 -0.112663 0)
(0.113259 -0.11949 0)
(0.137436 -0.119665 0)
(0.162739 -0.112971 0)
(0.187638 -0.099152 0)
(0.210013 -0.0785747 0)
(0.227429 -0.0524708 0)
(0.237736 -0.0230132 0)
(0.239755 0.00696259 0)
(0.233484 0.0345369 0)
(0.219917 0.0572491 0)
(0.200685 0.0734864 0)
(0.177611 0.082573 0)
(0.152322 0.0846026 0)
(0.125789 0.0801631 0)
(0.109522 0.077978 0)
(0.100413 -0.136516 0)
(0.115749 -0.137579 0)
(0.141002 -0.141516 0)
(0.168009 -0.138225 0)
(0.195736 -0.127573 0)
(0.222387 -0.109444 0)
(0.245655 -0.0844389 0)
(0.263112 -0.0540661 0)
(0.272858 -0.0207136 0)
(0.273995 0.0127145 0)
(0.266706 0.0433296 0)
(0.252106 0.0687644 0)
(0.231889 0.0875046 0)
(0.207854 0.0989148 0)
(0.181587 0.103064 0)
(0.154065 0.100548 0)
(0.136532 0.100281 0)
(0.125557 -0.164283 0)
(0.143459 -0.162617 0)
(0.171367 -0.16273 0)
(0.20074 -0.155198 0)
(0.230236 -0.140003 0)
(0.257854 -0.117227 0)
(0.281229 -0.087728 0)
(0.298111 -0.0532457 0)
(0.306898 -0.0162834 0)
(0.306929 0.0202736 0)
(0.298577 0.0536532 0)
(0.283089 0.0816552 0)
(0.26218 0.102893 0)
(0.237595 0.116779 0)
(0.210852 0.123365 0)
(0.182899 0.123265 0)
(0.164301 0.125403 0)
(0.153782 -0.192031 0)
(0.174268 -0.186986 0)
(0.204468 -0.18239 0)
(0.235646 -0.16991 0)
(0.26618 -0.149684 0)
(0.293956 -0.122032 0)
(0.316705 -0.0880608 0)
(0.332445 -0.0496768 0)
(0.339854 -0.00941231 0)
(0.338534 0.0299586 0)
(0.329078 0.0658703 0)
(0.312808 0.0963279 0)
(0.291398 0.120078 0)
(0.266527 0.136587 0)
(0.239647 0.145905 0)
(0.211656 0.148659 0)
(0.192052 0.153612 0)
(0.185492 -0.218852 0)
(0.208492 -0.209746 0)
(0.240507 -0.199597 0)
(0.272805 -0.181526 0)
(0.303557 -0.155882 0)
(0.330654 -0.123241 0)
(0.352037 -0.0849151 0)
(0.366027 -0.0429096 0)
(0.371624 0.000315767 0)
(0.368743 0.0422045 0)
(0.358139 0.0804525 0)
(0.341124 0.113281 0)
(0.319299 0.139576 0)
(0.294262 0.158863 0)
(0.267408 0.171191 0)
(0.239578 0.177199 0)
(0.218875 0.18532 0)
(0.22128 -0.243598 0)
(0.246604 -0.229698 0)
(0.279805 -0.21319 0)
(0.312375 -0.188964 0)
(0.342381 -0.15763 0)
(0.367853 -0.120016 0)
(0.387044 -0.0775838 0)
(0.398658 -0.0323277 0)
(0.402062 0.0134886 0)
(0.397424 0.0576058 0)
(0.385572 0.0980034 0)
(0.367773 0.133136 0)
(0.345511 0.162037 0)
(0.320274 0.184276 0)
(0.293395 0.199887 0)
(0.265692 0.209539 0)
(0.243622 0.221127 0)
(0.261961 -0.264619 0)
(0.289229 -0.245106 0)
(0.322723 -0.221488 0)
(0.35445 -0.190684 0)
(0.382525 -0.153589 0)
(0.405281 -0.111232 0)
(0.421388 -0.0651026 0)
(0.429992 -0.01707 0)
(0.430816 0.0308912 0)
(0.424179 0.0768834 0)
(0.410911 0.11922 0)
(0.392197 0.156612 0)
(0.369368 0.188216 0)
(0.343751 0.213624 0)
(0.316569 0.232855 0)
(0.288627 0.246564 0)
(0.264643 0.261842 0)
(0.308519 -0.279398 0)
(0.337024 -0.253283 0)
(0.369457 -0.22193 0)
(0.398786 -0.184417 0)
(0.423438 -0.141853 0)
(0.442231 -0.0953419 0)
(0.454321 -0.0462468 0)
(0.459272 0.00386097 0)
(0.457087 0.0533878 0)
(0.448169 0.100837 0)
(0.433261 0.144895 0)
(0.413378 0.184519 0)
(0.389665 0.218957 0)
(0.363256 0.247819 0)
(0.335218 0.271092 0)
(0.306289 0.289327 0)
(0.279418 0.308443 0)
(0.36171 -0.283838 0)
(0.390153 -0.25007 0)
(0.419344 -0.210899 0)
(0.444082 -0.167249 0)
(0.463467 -0.120181 0)
(0.476914 -0.0706631 0)
(0.484061 -0.0197496 0)
(0.484786 0.031427 0)
(0.479231 0.0817324 0)
(0.467768 0.130091 0)
(0.450967 0.175546 0)
(0.42957 0.217285 0)
(0.404445 0.254679 0)
(0.376483 0.287358 0)
(0.346543 0.315225 0)
(0.315223 0.338624 0)
(0.283851 0.361674 0)
(0.418083 -0.270326 0)
(0.443681 -0.228834 0)
(0.466395 -0.183836 0)
(0.484222 -0.136321 0)
(0.496863 -0.0869852 0)
(0.504136 -0.0364799 0)
(0.505951 0.014526 0)
(0.502313 0.0653394 0)
(0.493332 0.115272 0)
(0.479215 0.163657 0)
(0.460269 0.20987 0)
(0.436883 0.253341 0)
(0.409522 0.293583 0)
(0.378695 0.330216 0)
(0.344924 0.36298 0)
(0.308637 0.391813 0)
(0.27033 0.418074 0)
(0.447021 -0.258479 0)
(0.470204 -0.213418 0)
(0.488858 -0.166303 0)
(0.502805 -0.117585 0)
(0.511909 -0.0677357 0)
(0.516083 -0.0172336 0)
(0.515287 0.0334344 0)
(0.509529 0.0837804 0)
(0.498864 0.13332 0)
(0.483394 0.181575 0)
(0.463269 0.228081 0)
(0.438682 0.272391 0)
(0.409871 0.314078 0)
(0.377112 0.35274 0)
(0.340722 0.388005 0)
(0.30105 0.419533 0)
(0.258479 0.447021 0)
(0 0 0)
(0 0 0)
(0 0 0)
(0 0 0)
(0 0 0)
(0 0 0)
(0 0 0)
(0 0 0)
(0 0 0)
(0 0 0)
(0 0 0)
(0 0 0)
(0 0 0)
(0 0 0)
(0 0 0)
(0 0 0)
(0.0115769 0.00799548 0)
(0.0159283 0.0122377 0)
(0.0188486 0.0169202 0)
(0.0202088 0.0221593 0)
(0.019844 0.0278525 0)
(0.0176264 0.0336311 0)
(0.0135775 0.0388505 0)
(0.00802436 0.0427477 0)
(0.00165829 0.0444848 0)
(-0.00452245 0.0435169 0)
(-0.00945248 0.0399498 0)
(-0.0123568 0.0343486 0)
(-0.0129371 0.0275057 0)
(-0.0113565 0.0201506 0)
(-0.00808069 0.0127662 0)
(-0.005896 0.00888539 0)
(0.0268547 0.0190551 0)
(0.0342313 0.0273517 0)
(0.0388185 0.0365209 0)
(0.0404203 0.0466827 0)
(0.0387597 0.057532 0)
(0.0336685 0.0682916 0)
(0.0253038 0.0777555 0)
(0.0143847 0.0845633 0)
(0.00223823 0.0873524 0)
(-0.00937245 0.0853629 0)
(-0.0186795 0.0788772 0)
(-0.0244285 0.0688644 0)
(-0.0261157 0.0566093 0)
(-0.0239402 0.0432952 0)
(-0.0185557 0.0297018 0)
(-0.0149353 0.0224017 0)
(0.045113 0.032913 0)
(0.0541757 0.0450295 0)
(0.0592404 0.0584181 0)
(0.0600718 0.0730945 0)
(0.0563217 0.0884761 0)
(0.0478567 0.103368 0)
(0.0350603 0.116124 0)
(0.0190596 0.124911 0)
(0.00172662 0.128109 0)
(-0.0146166 0.125033 0)
(-0.027787 0.11617 0)
(-0.0362707 0.102777 0)
(-0.0394446 0.086421 0)
(-0.0374849 0.068532 0)
(-0.0310765 0.0500321 0)
(-0.0267646 0.039788 0)
(0.0658634 0.0495075 0)
(0.0753456 0.0652301 0)
(0.0797813 0.082549 0)
(0.0789148 0.101287 0)
(0.0723769 0.120543 0)
(0.0601417 0.138739 0)
(0.0428686 0.153882 0)
(0.0220817 0.163839 0)
(9.1297e-05 0.166966 0)
(-0.0204188 0.162786 0)
(-0.0370515 0.151996 0)
(-0.0481797 0.136047 0)
(-0.0531244 0.116661 0)
(-0.052022 0.0953869 0)
(-0.0455223 0.0731913 0)
(-0.0412516 0.0604957 0)
(0.0885745 0.0688013 0)
(0.0972885 0.0879208 0)
(0.100072 0.108851 0)
(0.0966684 0.131153 0)
(0.0867403 0.153596 0)
(0.0704382 0.174299 0)
(0.0487078 0.190981 0)
(0.0234306 0.201406 0)
(-0.00275269 0.20411 0)
(-0.0269759 0.198858 0)
(-0.0467664 0.186523 0)
(-0.0604724 0.168674 0)
(-0.0674012 0.147106 0)
(-0.0676622 0.123431 0)
(-0.0618617 0.0986152 0)
(-0.0583206 0.0839328 0)
(0.112689 0.0908058 0)
(0.119529 0.113104 0)
(0.119714 0.137282 0)
(0.113023 0.162605 0)
(0.099199 0.187534 0)
(0.0786118 0.209941 0)
(0.0524968 0.22738 0)
(0.0230305 0.2377 0)
(-0.00694928 0.239723 0)
(-0.0345236 0.23345 0)
(-0.0572344 0.219879 0)
(-0.073471 0.200643 0)
(-0.0825585 0.177566 0)
(-0.0845898 0.152276 0)
(-0.0801523 0.125744 0)
(-0.0779675 0.10948 0)
(0.13761 0.115591 0)
(0.141562 0.14083 0)
(0.13828 0.167844 0)
(0.127629 0.195598 0)
(0.109494 0.222284 0)
(0.084477 0.245583 0)
(0.054092 0.263064 0)
(0.0207302 0.272822 0)
(-0.012702 0.273963 0)
(-0.0433171 0.266672 0)
(-0.0687501 0.252068 0)
(-0.0874892 0.231846 0)
(-0.0988996 0.207807 0)
(-0.10305 0.181539 0)
(-0.100535 0.154017 0)
(-0.100268 0.136487 0)
(0.162652 0.143281 0)
(0.162781 0.171184 0)
(0.155257 0.200573 0)
(0.140061 0.230102 0)
(0.117277 0.257756 0)
(0.0877649 0.281163 0)
(0.0532698 0.298066 0)
(0.0162982 0.306864 0)
(-0.0202629 0.306898 0)
(-0.0536422 0.298544 0)
(-0.0816423 0.283052 0)
(-0.102878 0.262138 0)
(-0.116765 0.237549 0)
(-0.123351 0.210803 0)
(-0.123251 0.182851 0)
(-0.125388 0.164254 0)
(0.187026 0.174081 0)
(0.182444 0.204285 0)
(0.16997 0.235487 0)
(0.149741 0.266057 0)
(0.122079 0.293869 0)
(0.0880946 0.316647 0)
(0.0496976 0.332406 0)
(0.00942416 0.339824 0)
(-0.0299505 0.338506 0)
(-0.0658618 0.329048 0)
(-0.0963171 0.312774 0)
(-0.120065 0.291359 0)
(-0.136574 0.266484 0)
(-0.145892 0.239601 0)
(-0.148645 0.211609 0)
(-0.153599 0.192006 0)
(0.209788 0.20831 0)
(0.199651 0.240338 0)
(0.181584 0.272665 0)
(0.155935 0.303452 0)
(0.123283 0.330581 0)
(0.0849436 0.351989 0)
(0.0429259 0.365994 0)
(-0.000307825 0.371598 0)
(-0.0421998 0.368718 0)
(-0.080447 0.358112 0)
(-0.113274 0.341095 0)
(-0.139566 0.319265 0)
(-0.158852 0.294225 0)
(-0.17118 0.267368 0)
(-0.177187 0.239535 0)
(-0.185309 0.218832 0)
(0.22974 0.246446 0)
(0.213241 0.279665 0)
(0.189015 0.312264 0)
(0.157674 0.3423 0)
(0.12005 0.367798 0)
(0.0776053 0.387008 0)
(0.0323385 0.398633 0)
(-0.0134849 0.402041 0)
(-0.0576048 0.397403 0)
(-0.0980014 0.38555 0)
(-0.133132 0.367749 0)
(-0.16203 0.345484 0)
(-0.184268 0.320243 0)
(-0.199879 0.293361 0)
(-0.20953 0.265655 0)
(-0.22112 0.243584 0)
(0.245145 0.28911 0)
(0.22153 0.322623 0)
(0.190724 0.354372 0)
(0.153622 0.38247 0)
(0.111255 0.405245 0)
(0.065116 0.421364 0)
(0.0170752 0.429976 0)
(-0.0308912 0.430802 0)
(-0.0768852 0.424165 0)
(-0.119221 0.410895 0)
(-0.15661 0.392178 0)
(-0.188212 0.369348 0)
(-0.213619 0.343728 0)
(-0.23285 0.316542 0)
(-0.246559 0.288597 0)
(-0.261839 0.264611 0)
(0.253313 0.33695 0)
(0.22196 0.369397 0)
(0.184442 0.398741 0)
(0.141872 0.423407 0)
(0.0953542 0.44221 0)
(0.0462527 0.454308 0)
(-0.00385983 0.459263 0)
(-0.0533896 0.457079 0)
(-0.100839 0.44816 0)
(-0.144897 0.433251 0)
(-0.184519 0.413366 0)
(-0.218955 0.389651 0)
(-0.247816 0.36324 0)
(-0.27109 0.335199 0)
(-0.289326 0.306267 0)
(-0.308444 0.279393 0)
(0.250087 0.390119 0)
(0.210914 0.419317 0)
(0.16726 0.444064 0)
(0.120189 0.463454 0)
(0.070667 0.476906 0)
(0.0197507 0.484055 0)
(-0.0314277 0.484782 0)
(-0.0817339 0.479228 0)
(-0.130092 0.467764 0)
(-0.175547 0.450962 0)
(-0.217285 0.429565 0)
(-0.254678 0.404438 0)
(-0.287358 0.376475 0)
(-0.315225 0.346533 0)
(-0.338624 0.31521 0)
(-0.361676 0.283836 0)
(0.228839 0.443673 0)
(0.18384 0.466389 0)
(0.136324 0.484217 0)
(0.0869867 0.49686 0)
(0.0364803 0.504135 0)
(-0.0145263 0.50595 0)
(-0.0653399 0.502312 0)
(-0.115272 0.493331 0)
(-0.163657 0.479214 0)
(-0.20987 0.460267 0)
(-0.253341 0.436881 0)
(-0.293582 0.40952 0)
(-0.330216 0.378693 0)
(-0.36298 0.344921 0)
(-0.391814 0.308633 0)
(-0.418075 0.270325 0)
(0.213418 0.470204 0)
(0.166303 0.488858 0)
(0.117585 0.502805 0)
(0.0677357 0.511909 0)
(0.0172336 0.516083 0)
(-0.0334344 0.515287 0)
(-0.0837804 0.509529 0)
(-0.13332 0.498864 0)
(-0.181575 0.483394 0)
(-0.228081 0.463269 0)
(-0.272391 0.438682 0)
(-0.314078 0.409871 0)
(-0.35274 0.377112 0)
(-0.388005 0.340722 0)
(-0.419533 0.30105 0)
(-0.447021 0.258479 0)
(0 0 0)
(0 0 0)
(0 0 0)
(0 0 0)
(0 0 0)
(0 0 0)
(0 0 0)
(0 0 0)
(0 0 0)
(0 0 0)
(0 0 0)
(0 0 0)
(0 0 0)
(0 0 0)
(0 0 0)
(0 0 0)
(0.0115769 0.00799548 0)
(0.0159283 0.0122377 0)
(0.0188486 0.0169202 0)
(0.0202088 0.0221593 0)
(0.019844 0.0278525 0)
(0.0176264 0.0336311 0)
(0.0135775 0.0388505 0)
(0.00802436 0.0427477 0)
(0.00165829 0.0444848 0)
(-0.00452245 0.0435169 0)
(-0.00945248 0.0399498 0)
(-0.0123568 0.0343486 0)
(-0.0129371 0.0275057 0)
(-0.0113565 0.0201506 0)
(-0.00808069 0.0127662 0)
(-0.005896 0.00888539 0)
(0.0268547 0.0190551 0)
(0.0342313 0.0273517 0)
(0.0388185 0.0365209 0)
(0.0404203 0.0466827 0)
(0.0387597 0.057532 0)
(0.0336685 0.0682916 0)
(0.0253038 0.0777555 0)
(0.0143847 0.0845633 0)
(0.00223823 0.0873524 0)
(-0.00937245 0.0853629 0)
(-0.0186795 0.0788772 0)
(-0.0244285 0.0688644 0)
(-0.0261157 0.0566093 0)
(-0.0239402 0.0432952 0)
(-0.0185557 0.0297018 0)
(-0.0149353 0.0224017 0)
(0.045113 0.032913 0)
(0.0541757 0.0450295 0)
(0.0592404 0.0584181 0)
(0.0600718 0.0730945 0)
(0.0563217 0.0884761 0)
(0.0478567 0.103368 0)
(0.0350603 0.116124 0)
(0.0190596 0.124911 0)
(0.00172662 0.128109 0)
(-0.0146166 0.125033 0)
(-0.027787 0.11617 0)
(-0.0362707 0.102777 0)
(-0.0394446 0.086421 0)
(-0.0374849 0.068532 0)
(-0.0310765 0.0500321 0)
(-0.0267646 0.039788 0)
(0.0658634 0.0495075 0)
(0.0753456 0.0652301 0)
(0.0797813 0.082549 0)
(0.0789148 0.101287 0)
(0.0723769 0.120543 0)
(0.0601417 0.138739 0)
(0.0428686 0.153882 0)
(0.0220817 0.163839 0)
(9.1297e-05 0.166966 0)
(-0.0204188 0.162786 0)
(-0.0370515 0.151996 0)
(-0.0481797 0.136047 0)
(-0.0531244 0.116661 0)
(-0.052022 0.0953869 0)
(-0.0455223 0.0731913 0)
(-0.0412516 0.0604957 0)
(0.0885745 0.0688013 0)
(0.0972885 0.0879208 0)
(0.100072 0.108851 0)
(0.0966684 0.131153 0)
(0.0867403 0.153596 0)
(0.0704382 0.174299 0)
(0.0487078 0.190981 0)
(0.0234306 0.201406 0)
(-0.00275269 0.20411 0)
(-0.0269759 0.198858 0)
(-0.0467664 0.186523 0)
(-0.0604724 0.168674 0)
(-0.0674012 0.147106 0)
(-0.0676622 0.123431 0)
(-0.0618617 0.0986152 0)
(-0.0583206 0.0839328 0)
(0.112689 0.0908058 0)
(0.119529 0.113104 0)
(0.119714 0.137282 0)
(0.113023 0.162605 0)
(0.099199 0.187534 0)
(0.0786118 0.209941 0)
(0.0524968 0.22738 0)
(0.0230305 0.2377 0)
(-0.00694928 0.239723 0)
(-0.0345236 0.23345 0)
(-0.0572344 0.219879 0)
(-0.073471 0.200643 0)
(-0.0825585 0.177566 0)
(-0.0845898 0.152276 0)
(-0.0801523 0.125744 0)
(-0.0779675 0.10948 0)
(0.13761 0.115591 0)
(0.141562 0.14083 0)
(0.13828 0.167844 0)
(0.127629 0.195598 0)
(0.109494 0.222284 0)
(0.084477 0.245583 0)
(0.054092 0.263064 0)
(0.0207302 0.272822 0)
(-0.012702 0.273963 0)
(-0.0433171 0.266672 0)
(-0.0687501 0.252068 0)
(-0.0874892 0.231846 0)
(-0.0988996 0.207807 0)
(-0.10305 0.181539 0)
(-0.100535 0.154017 0)
(-0.100268 0.136487 0)
(0.162652 0.143281 0)
(0.162781 0.171184 0)
(0.155257 0.200573 0)
(0.140061 0.230102 0)
(0.117277 0.257756 0)
(0.0877649 0.281163 0)
(0.0532698 0.298066 0)
(0.0162982 0.306864 0)
(-0.0202629 0.306898 0)
(-0.0536422 0.298544 0)
(-0.0816423 0.283052 0)
(-0.102878 0.262138 0)
(-0.116765 0.237549 0)
(-0.123351 0.210803 0)
(-0.123251 0.182851 0)
(-0.125388 0.164254 0)
(0.187026 0.174081 0)
(0.182444 0.204285 0)
(0.16997 0.235487 0)
(0.149741 0.266057 0)
(0.122079 0.293869 0)
(0.0880946 0.316647 0)
(0.0496976 0.332406 0)
(0.00942416 0.339824 0)
(-0.0299505 0.338506 0)
(-0.0658618 0.329048 0)
(-0.0963171 0.312774 0)
(-0.120065 0.291359 0)
(-0.136574 0.266484 0)
(-0.145892 0.239601 0)
(-0.148645 0.211609 0)
(-0.153599 0.192006 0)
(0.209788 0.20831 0)
(0.199651 0.240338 0)
(0.181584 0.272665 0)
(0.155935 0.303452 0)
(0.123283 0.330581 0)
(0.0849436 0.351989 0)
(0.0429259 0.365994 0)
(-0.000307825 0.371598 0)
(-0.0421998 0.368718 0)
(-0.080447 0.358112 0)
(-0.113274 0.341095 0)
(-0.139566 0.319265 0)
(-0.158852 0.294225 0)
(-0.17118 0.267368 0)
(-0.177187 0.239535 0)
(-0.185309 0.218832 0)
(0.22974 0.246446 0)
(0.213241 0.279665 0)
(0.189015 0.312264 0)
(0.157674 0.3423 0)
(0.12005 0.367798 0)
(0.0776053 0.387008 0)
(0.0323385 0.398633 0)
(-0.0134849 0.402041 0)
(-0.0576048 0.397403 0)
(-0.0980014 0.38555 0)
(-0.133132 0.367749 0)
(-0.16203 0.345484 0)
(-0.184268 0.320243 0)
(-0.199879 0.293361 0)
(-0.20953 0.265655 0)
(-0.22112 0.243584 0)
(0.245145 0.28911 0)
(0.22153 0.322623 0)
(0.190724 0.354372 0)
(0.153622 0.38247 0)
(0.111255 0.405245 0)
(0.065116 0.421364 0)
(0.0170752 0.429976 0)
(-0.0308912 0.430802 0)
(-0.0768852 0.424165 0)
(-0.119221 0.410895 0)
(-0.15661 0.392178 0)
(-0.188212 0.369348 0)
(-0.213619 0.343728 0)
(-0.23285 0.316542 0)
(-0.246559 0.288597 0)
(-0.261839 0.264611 0)
(0.253313 0.33695 0)
(0.22196 0.369397 0)
(0.184442 0.398741 0)
(0.141872 0.423407 0)
(0.0953542 0.44221 0)
(0.0462527 0.454308 0)
(-0.00385983 0.459263 0)
(-0.0533896 0.457079 0)
(-0.100839 0.44816 0)
(-0.144897 0.433251 0)
(-0.184519 0.413366 0)
(-0.218955 0.389651 0)
(-0.247816 0.36324 0)
(-0.27109 0.335199 0)
(-0.289326 0.306267 0)
(-0.308444 0.279393 0)
(0.250087 0.390119 0)
(0.210914 0.419317 0)
(0.16726 0.444064 0)
(0.120189 0.463454 0)
(0.070667 0.476906 0)
(0.0197507 0.484055 0)
(-0.0314277 0.484782 0)
(-0.0817339 0.479228 0)
(-0.130092 0.467764 0)
(-0.175547 0.450962 0)
(-0.217285 0.429565 0)
(-0.254678 0.404438 0)
(-0.287358 0.376475 0)
(-0.315225 0.346533 0)
(-0.338624 0.31521 0)
(-0.361676 0.283836 0)
(0.228839 0.443673 0)
(0.18384 0.466389 0)
(0.136324 0.484217 0)
(0.0869867 0.49686 0)
(0.0364803 0.504135 0)
(-0.0145263 0.50595 0)
(-0.0653399 0.502312 0)
(-0.115272 0.493331 0)
(-0.163657 0.479214 0)
(-0.20987 0.460267 0)
(-0.253341 0.436881 0)
(-0.293582 0.40952 0)
(-0.330216 0.378693 0)
(-0.36298 0.344921 0)
(-0.391814 0.308633 0)
(-0.418075 0.270325 0)
(0.213418 0.470204 0)
(0.166303 0.488858 0)
(0.117585 0.502805 0)
(0.0677357 0.511909 0)
(0.0172336 0.516083 0)
(-0.0334344 0.515287 0)
(-0.0837804 0.509529 0)
(-0.13332 0.498864 0)
(-0.181575 0.483394 0)
(-0.228081 0.463269 0)
(-0.272391 0.438682 0)
(-0.314078 0.409871 0)
(-0.35274 0.377112 0)
(-0.388005 0.340722 0)
(-0.419533 0.30105 0)
(-0.447021 0.258479 0)
(0 0 0)
(0 0 0)
(0 0 0)
(0 0 0)
(0 0 0)
(0 0 0)
(0 0 0)
(0 0 0)
(0 0 0)
(0 0 0)
(0 0 0)
(0 0 0)
(0 0 0)
(0 0 0)
(0 0 0)
(0 0 0)
(-0.00799547 0.0115705 0)
(-0.0122364 0.0159211 0)
(-0.0169172 0.0188416 0)
(-0.0221548 0.020203 0)
(-0.0278476 0.0198401 0)
(-0.0336272 0.0176238 0)
(-0.0388486 0.0135749 0)
(-0.0427478 0.0080208 0)
(-0.0444862 0.00165379 0)
(-0.0435185 -0.00452792 0)
(-0.039951 -0.009459 0)
(-0.0343491 -0.0123643 0)
(-0.0275053 -0.0129451 0)
(-0.0201497 -0.0113637 0)
(-0.0127653 -0.00808577 0)
(-0.0088846 -0.00589984 0)
(-0.0190539 0.0268407 0)
(-0.0273479 0.0342162 0)
(-0.0365143 0.0388043 0)
(-0.046674 0.040409 0)
(-0.0575232 0.0387517 0)
(-0.0682852 0.0336627 0)
(-0.0777529 0.0252977 0)
(-0.0845642 0.0143769 0)
(-0.0873553 0.00222879 0)
(-0.085366 -0.00938336 0)
(-0.0788795 -0.0186921 0)
(-0.0688654 -0.024443 0)
(-0.056609 -0.0261314 0)
(-0.0432938 -0.0239553 0)
(-0.0297001 -0.0185679 0)
(-0.0223999 -0.0149459 0)
(-0.0329095 0.045091 0)
(-0.0450224 0.0541529 0)
(-0.0584078 0.0592196 0)
(-0.0730824 0.0600552 0)
(-0.0884649 0.0563096 0)
(-0.10336 0.0478471 0)
(-0.116121 0.0350503 0)
(-0.124914 0.0190473 0)
(-0.128113 0.0017123 0)
(-0.125038 -0.0146327 0)
(-0.116173 -0.0278051 0)
(-0.102778 -0.0362913 0)
(-0.086421 -0.0394673 0)
(-0.0685304 -0.037508 0)
(-0.0500297 -0.031097 0)
(-0.0397852 -0.0267839 0)
(-0.0495008 0.0658338 0)
(-0.0652195 0.0753158 0)
(-0.0825355 0.0797546 0)
(-0.101273 0.0788934 0)
(-0.120531 0.0723607 0)
(-0.138732 0.0601279 0)
(-0.153881 0.042854 0)
(-0.163843 0.0220647 0)
(-0.166971 7.22138e-05 0)
(-0.162792 -0.0204395 0)
(-0.151999 -0.0370743 0)
(-0.136049 -0.0482055 0)
(-0.116661 -0.0531533 0)
(-0.0953854 -0.0520526 0)
(-0.0731885 -0.0455515 0)
(-0.0604921 -0.0412807 0)
(-0.0687912 0.0885383 0)
(-0.0879071 0.0972529 0)
(-0.108836 0.100041 0)
(-0.131139 0.0966428 0)
(-0.153585 0.0867197 0)
(-0.174294 0.0704198 0)
(-0.190982 0.0486886 0)
(-0.201411 0.0234092 0)
(-0.204117 -0.002776 0)
(-0.198864 -0.0270006 0)
(-0.186528 -0.0467932 0)
(-0.168677 -0.0605025 0)
(-0.147107 -0.0674353 0)
(-0.12343 -0.0676993 0)
(-0.0986121 -0.0618992 0)
(-0.0839285 -0.0583596 0)
(-0.0907928 0.112648 0)
(-0.113088 0.119489 0)
(-0.137266 0.119679 0)
(-0.162591 0.112993 0)
(-0.187526 0.099174 0)
(-0.209938 0.0785885 0)
(-0.227383 0.0524728 0)
(-0.237706 0.0230049 0)
(-0.23973 -0.00697627 0)
(-0.233457 -0.0345516 0)
(-0.219884 -0.0572642 0)
(-0.200647 -0.0735043 0)
(-0.177567 -0.0825962 0)
(-0.152275 -0.0846318 0)
(-0.125741 -0.0801966 0)
(-0.109475 -0.0780149 0)
(-0.115577 0.137566 0)
(-0.140814 0.14152 0)
(-0.16783 0.138242 0)
(-0.195588 0.127596 0)
(-0.222278 0.109464 0)
(-0.245584 0.0844485 0)
(-0.263069 0.0540635 0)
(-0.27283 0.0207009 0)
(-0.273971 -0.0127318 0)
(-0.266679 -0.0433473 0)
(-0.252072 -0.0687818 0)
(-0.23185 -0.0875242 0)
(-0.207808 -0.0989394 0)
(-0.181538 -0.103095 0)
(-0.154013 -0.100584 0)
(-0.136481 -0.100321 0)
(-0.143267 0.162607 0)
(-0.17117 0.162738 0)
(-0.200563 0.155218 0)
(-0.230096 0.140025 0)
(-0.257754 0.117242 0)
(-0.281166 0.0877317 0)
(-0.298073 0.0532375 0)
(-0.306872 0.0162662 0)
(-0.306906 -0.0202945 0)
(-0.29855 -0.0536736 0)
(-0.283057 -0.0816747 0)
(-0.262141 -0.102914 0)
(-0.23755 -0.116804 0)
(-0.210802 -0.123396 0)
(-0.182847 -0.123301 0)
(-0.164247 -0.125444 0)
(-0.174068 0.186982 0)
(-0.204275 0.182402 0)
(-0.235481 0.16993 0)
(-0.266055 0.149702 0)
(-0.29387 0.122041 0)
(-0.316651 0.0880572 0)
(-0.332413 0.0496622 0)
(-0.339833 0.00939048 0)
(-0.338514 -0.0299826 0)
(-0.329054 -0.0658928 0)
(-0.312778 -0.0963485 0)
(-0.291362 -0.120099 0)
(-0.266485 -0.136612 0)
(-0.2396 -0.145935 0)
(-0.211605 -0.148694 0)
(-0.191999 -0.153653 0)
(-0.208301 0.209747 0)
(-0.240333 0.199612 0)
(-0.272664 0.181545 0)
(-0.303454 0.155895 0)
(-0.330585 0.123241 0)
(-0.351995 0.0849035 0)
(-0.366002 0.0428888 0)
(-0.371607 -0.000341447 0)
(-0.368726 -0.0422304 0)
(-0.358118 -0.0804758 0)
(-0.341098 -0.113302 0)
(-0.319268 -0.139597 0)
(-0.294225 -0.158886 0)
(-0.267366 -0.171218 0)
(-0.239531 -0.177231 0)
(-0.218824 -0.185358 0)
(-0.246441 0.229703 0)
(-0.279664 0.213204 0)
(-0.312266 0.188977 0)
(-0.342304 0.157634 0)