/*--------------------------------*- C++ -*----------------------------------*\
| =========                 |                                                 |
| \\      /  F ield         | OpenFOAM: The Open Source CFD Toolbox           |
|  \\    /   O peration     | Version:  2412                                  |
|   \\  /    A nd           | Website:  www.openfoam.com                      |
|    \\/     M anipulation  |                                                 |
\*---------------------------------------------------------------------------*/
FoamFile
{
    version     2.0;
    format      ascii;
    arch        "LSB;label=32;scalar=64";
    class       volScalarField;
    location    "307";
    object      yPlus;
}
// * * * * * * * * * * * * * * * * * * * * * * * * * * * * * * * * * * * * * //

dimensions      [0 0 0 0 0 0 0];

internalField   uniform 0;

boundaryField
{
    FrontBack
    {
        type            empty;
    }
    Top
    {
        type            calculated;
        value           nonuniform List<scalar> 
15
(
142.2725960951998
133.5643301201795
138.0688010585587
144.3984397934754
159.7687717454426
131.3682885549123
140.1198240051796
135.3543402046311
153.4333369158421
135.7447769301487
136.0912551421717
136.7742491768683
125.2418429472477
132.9018441031851
123.9472011301448
)
;
    }
    In
    {
        type            calculated;
        value           uniform 0;
    }
    Bottom
    {
        type            calculated;
        value           nonuniform List<scalar> 
15
(
155.5654969794971
158.1121373695711
141.0950832868473
142.0729241817733
141.1848972171331
148.4482709012981
142.7073841630746
143.168079365296
143.4236505651152
134.0581475818665
125.7348565203254
141.5548624019541
122.4124032428567
123.4918082496489
124.1419271648676
)
;
    }
    Out
    {
        type            calculated;
        value           uniform 0;
    }
    circle
    {
        type            calculated;
        value           nonuniform List<scalar> 
32
(
56.35849804526405
22.03076346510637
65.30815864049667
24.04284202898885
19.24023869507819
56.20009953170927
56.8049827709283
24.18626081829805
22.29313938437327
65.52589698700213
40.18811731031052
63.03985403979421
50.32353083583859
13.80350752088815
23.58080605798065
19.19621854478221
38.89758235463884
59.61025782977657
61.0279094976969
25.42029784677158
65.73491601773844
63.80489349652711
62.96705514462622
59.90380141544138
64.11550007324894
45.98909368792785
66.3758765105773
32.12172243363462
37.97161104162203
55.72905078773816
21.17904920436058
43.12803806118426
)
;
    }
}


// ************************************************************************* //
