/*--------------------------------*- C++ -*----------------------------------*\
| =========                 |                                                 |
| \\      /  F ield         | OpenFOAM: The Open Source CFD Toolbox           |
|  \\    /   O peration     | Version:  2412                                  |
|   \\  /    A nd           | Website:  www.openfoam.com                      |
|    \\/     M anipulation  |                                                 |
\*---------------------------------------------------------------------------*/
FoamFile
{
    version     2.0;
    format      ascii;
    arch        "LSB;label=32;scalar=64";
    class       volScalarField;
    location    "674.5";
    object      p;
}
// * * * * * * * * * * * * * * * * * * * * * * * * * * * * * * * * * * * * * //

dimensions      [0 2 -2 0 0 0 0];

internalField   nonuniform List<scalar> 
808
(
-0.03451712949827266
0.04468533093835297
-0.011845785114323
0.0364411900959492
-0.299751599687074
-0.05488551639994698
-0.01482493684077309
-0.02383635597754655
-0.1971867207155792
-0.08405436232588311
-0.009487610372545797
-0.2544008776933384
-0.03056926686879062
-0.01326159076198063
-0.1240856197755964
-0.01401742749235043
-0.1424590382209781
-0.01358750593299968
-0.01284164485577161
-0.0558519647361309
-0.00651040656943163
0.1174785509367633
-0.06196990466984562
-0.07189426706554017
0.1752977548531
-0.09954907746830982
-0.1527537121584909
-0.02036671793369736
-0.01748542923852599
-0.02596527898503159
-0.02022389473150979
-0.0586464107230033
-0.02297596736276704
-0.01689714172450725
-0.09943119160952077
0.3447258370150065
-0.03902335383910066
-0.01681815096357037
-0.02297375231075606
-0.02658215774811441
-0.09030053160949171
-0.1267751597028618
-0.05157063921834022
-0.02077752604079652
-0.05542811363717706
-0.04104552771919912
-0.01227068626864065
-0.1846602445518487
-0.02712635031106465
-0.2043462774110769
-0.0163096375152709
-0.06744861423166648
-0.06042281159451901
-0.01516114647108279
-0.1928402718829727
-0.02847714963910193
-0.01087912734101207
-0.01508467072325795
-0.1005246763515239
-0.03995635367269711
-0.09797528825792555
-0.1262975683626083
-0.01372006234074344
-0.1278242868292294
-0.01698999663966964
-0.05137615918525427
-0.163279063091912
-0.03561000291641549
-0.01507119568142971
-0.4413084187650353
-0.02668456656312997
-0.3035203623469871
-0.02175291766802739
-0.02042405897321733
-0.06467017331916981
-0.01763094880457645
-0.04273235912180871
-0.3638091832870334
-0.03573212217957832
0.04012081310136299
-0.09151355799079443
-0.01712307532826256
0.05693181211671434
0.04492660139717242
-0.01688131513356409
-0.05237570456479128
-0.5433007315468953
-0.2257965761511103
-0.05235515957530971
-0.1125722059931534
-0.05676067027101296
-0.1326161955036457
0.03954982701861713
-0.02510672757448636
-0.06150071096371979
-0.1165462731201632
-0.03842570831575142
-0.05233268535071992
-0.1160907855903892
-0.1371800232677582
-0.05235224224069257
-0.04756118834984029
-0.05456283601070604
-0.04498442872564669
-0.05741720798049448
-0.07423919905793452
-0.04154465150082826
-0.01125986943442031
-0.04046857305974707
-0.1242690540648095
-0.05058260899393333
0.08225257270620791
-0.04257161554985415
-0.008292864171079899
-0.02778485154944026
0.1806659626800095
-0.03899865574883456
-0.2695269391138682
-0.02036333191995272
-0.05371455632823656
-0.02952496053175753
-0.04848946005375079
0.01332523850769828
-0.04882633105266448
-0.0352610371524642
-0.2172031576334149
-0.04135034884716758
-0.005056108283684385
-0.07606849595128722
-0.06851450386811013
-0.1426354265273458
-0.02086429383694648
-0.07524241210084434
-0.0426574680477814
-0.02276327654216497
-0.01581233020801345
-0.006414134341735026
-0.007271607633145776
-0.05256727911234176
-0.04994600294383476
-0.2160954383415177
-0.05671126966678408
-0.008457793609131504
-0.02240568966551366
-0.1468534581212305
-0.002782667717115073
-0.07643273415001463
-0.02218937171990382
-0.001028100787820932
-0.01098595694319277
-0.03347477863419394
0.09424549407158331
-0.03884945911496957
0.2520826854288685
-0.2694375220973966
-0.1319771644969662
-0.03735340032675133
-0.09101991921096043
-0.009402383015160684
-0.1131344014059815
-0.1808908387228436
-0.2192068562095864
-0.1776757580436951
0.05620779685952453
-0.06269462803902552
-0.02036049260019606
-0.06705960692607126
-0.1662477296240104
-0.02355730055951269
-0.0183535836116833
-0.05213601748224093
-0.01937420079797378
-0.006655641115540697
-0.10783450508838
-0.02295195078882227
-0.04529843865377294
-0.06978838781900708
-0.1611600897661152
-0.03349067973570066
-0.3911044462234671
-0.01783317824600739
-0.2250394360086049
-0.04446071277113016
0.03198850959473792
-0.1062384238199664
-0.01526238749500214
-0.04228162141573877
-0.1041420935978657
-0.01765489208701705
-0.09543001298500389
-0.2078160659129819
-0.07182969327115835
-0.02377164329024075
-0.04834954555547274
-0.0429259491215096
-0.2048156307807779
-0.02196383306995826
-0.01902765957243077
-0.01131088845908887
-0.05589647683025058
-0.05081609199841338
-0.02235117122071859
-0.02083407887085423
-0.2430933821165413
0.1274180301215832
-0.2039177101738623
-0.1987824173542047
-0.01179532052571994
-0.0114609144569896
-0.06717918273093862
-0.01002839438675476
-0.5073112948620191
-0.1200243907396784
-0.01908745443710436
-0.0002944072037570543
-0.02407016478831005
-0.2825298425955458
-0.2774673703306497
-0.007051798050206965
-0.01721183897488291
-0.001345386142825603
-0.3482747776532727
-0.02829150439195778
-0.02914481856533297
-0.01250691687569116
-0.01969229581353979
0.04989262910610418
-0.1095312262752129
-0.01416139362380871
-0.02079006294136488
-0.04413591096030242
-0.01821965160659992
-0.01614967887158163
-0.02342690757331587
-0.0674638517583728
-0.01156467227127157
-0.01904816850161902
-0.008572346085182729
-0.0006968004818484201
-0.02952224921632418
-0.001704229713385079
-0.002194592473487803
-0.005881967238884991
-0.02560883295270831
-0.007956288135363589
0.001476754069677441
-0.004272422430250005
0.001339412592557274
0.002547271667736886
-0.008852846981239379
-0.1409697545748851
-0.002989073053575927
-0.001496589895823425
-0.04831828994796896
-0.0215861077181818
-0.02442002436472936
-0.01433635846577557
-0.006161785618203675
-0.02087793238700716
-0.0387493461559096
-0.01410852248772891
-0.01290619393077017
-0.01152069408779893
0.00852789633340582
-0.01020611076278124
-0.01179145940222443
-0.01147631955411952
-0.01066815318046999
-0.0103173204131686
-0.01209109837967337
-0.01397217598760703
-0.3058568035113689
0.05990131621671402
-0.01582175417431412
-0.01548573636353168
-0.01297089302529813
-0.01189044418681022
-0.008764730296839503
-0.09653751256141782
0.01155176676169994
-0.01362159723624106
-0.01429254094806976
-0.01065374789048485
-0.0520178000989919
-0.01032342778026117
-0.01358302663938355
-0.009990328790434183
-0.0001962466513887191
-0.01063014377855619
-0.0120570477359654
-0.02467282813839507
-0.01576881595329259
-0.01185573913280076
-0.01350345074993407
-0.007341398331784022
-0.01219029790973021
-0.01177538621678036
-0.05842220682977051
-0.01331320042948171
-0.01124332489244653
-0.00884197422893737
-0.01494381518143494
-0.0136879752591683
-0.01564170258306991
-1.369979820819158
-0.09934070957221215
-0.0133764439042571
0.02575491494329386
-0.162768078064019
-0.09162447411209604
-0.0118403693999332
-0.01404298825188321
-0.2399932369278313
-0.02940397119798306
-0.01891781238637612
-0.01139360985778321
-0.0197809872714558
-0.0103185182295379
-0.03075017286062183
-0.4114468268330935
-0.01243271002969826
-0.01410593582054392
-0.00475293799949672
-0.01116958075286008
-0.01060294443357021
-0.0141781122792285
-0.007124407086640403
-0.0263911247296199
-0.0115870775462589
-0.1683011924517908
0.01809664175051059
-0.007540437877209652
0.003843975582070959
0.01365535165690486
-0.0479211689738759
0.02877943490678856
-0.01329169662809647
-0.1333468175182815
0.2825818163920591
-0.007291466577311258
-0.01352448652911215
-0.008261574080691647
-0.03267076233306994
-0.123965503145549
-0.01229857489154343
-0.01220907507323209
-0.01676696975287926
-0.01356235352476275
-0.04120675494137443
-0.2170539451344919
-0.01051382385728292
-0.04233347328759274
-0.03939713704817836
-0.1707829792339777
-0.1615817379828074
-0.1343424721010774
-0.2345915627674429
-0.006208904034584195
-0.02108223961153393
-0.0141282294932779
-0.01279542012046825
-0.03318364164200844
-0.02447174054965585
-0.01433397125963118
-0.01492282447025724
-1.074376894044581
-0.006222126712697017
-0.01336114120217953
-0.01838363514314654
-0.02382592658882878
-3.748243791340304e-05
-0.01474408503789467
-0.0264765006045174
-0.1529192681096573
-0.01358879568242084
-0.02207684408731429
-0.01385285853471259
-0.0009256289592331865
-0.1784541944049847
-0.01296523184143986
-0.1441777980322848
-0.01595527082729901
0.004204261406158192
-0.01455913737631401
-0.02344473811303683
-0.01557376507024336
0.004956561571522122
-0.2742993061475418
-0.02583356572699757
-0.01602187991035937
-0.002833044176815257
-0.009767961200665453
-0.03006734104560296
-0.01421092773262883
-0.02046760232620244
-0.02111601563604377
0.01495315475171292
-0.09917792959806743
-0.02178639675463901
0.00928166857201931
-0.05437248153770932
0.1694052842603969
-0.1046112309709233
-0.3176599055197667
-0.03100661434016791
-0.0255543719124784
0.1506442034390129
0.07783295689757147
-0.00358336838854395
0.04967369764499469
-0.01537750827413556
-0.01420428141906325
0.002375362637895118
0.01009742000318919
-0.06588026626168728
-0.005905056394613639
-0.05688642529573783
-0.02226165867675742
-0.01573095894177352
-0.03653832527102775
-0.03291299811671971
-0.006647594589062014
-0.01509182469000392
-0.03786994099322965
0.03675321830137488
-0.03884064709546903
-0.01384340677999701
-0.1178248412375378
-0.03179193486893934
-0.03903899109361672
-0.6722213233101033
0.02039194260615953
-0.01045002409542749
-0.005733591364533456
0.1619968873730408
-0.08813991173373383
-0.03520048570284733
-0.244281080154648
-0.01643507218383031
-0.01643400080553511
0.07168702908275378
-0.1817359921560626
-0.2332174269526095
-0.1942275141579097
-0.6810950251123814
0.001858246691816851
-0.01849646265465033
-0.01693624486558805
-0.0830065846444213
0.1183358746129256
-0.02082054775534828
-0.2316217619625771
-0.03536817162855155
-0.006596522050205463
0.2799760985492042
-0.01121187675476311
-0.09219038440224901
-0.1510361768484107
-0.003551587659815806
-0.04079068761251469
-0.05196699292261184
-0.2030072339177649
-0.008345435284046616
-0.0409145059620376
-0.00253020226658792
-0.546680970017222
-0.1954767637863454
-0.17744875325031
-0.02287791357917841
-0.007511520157062139
-0.06091368957900082
-0.05735066984286342
-0.01379996696850592
-0.06843240397786203
0.004342035339292803
-0.01813420277385975
-0.0936518451064402
-0.2714221478054009
-0.007450902981963338
-0.02613293469622766
-0.02184801336532614
-0.07513706400064697
-0.08995544226061138
-0.08864719868648117
-0.01204245644468247
-0.9191831887011691
0.1617831494464589
-0.07895111999660639
-0.2515451157045308
-0.0420144780430027
-0.01022478045971264
-0.255421878304072
-0.1913692652526336
-0.03192261309627437
-0.1264272263673658
-0.01968339008641965
0.5636145392261559
-0.02429850378083658
-0.2253196178604819
-0.02569291147736632
-0.005683260684012925
-0.01181857571983479
-1.246024565374459
-0.1807058599893869
-0.2297116191991492
0.005280270508988084
-0.03824825836800982
-0.2494831494582152
-0.06611850662313871
-0.05140924975144749
-0.1445588599007989
-0.1840785797697416
-0.06873894891397433
-1.221608622808064
-0.146114893011138
-0.5281339816400065
0.07922479909068773
-0.006255592682523085
-0.02160006852394016
-0.04352670675958747
-0.03923330090067864
-0.02851536190010562
-0.1295336890300711
0.08088640414318633
-0.002008478944290262
-0.009926916052383123
-0.5742608736491369
-0.8573047363149877
-0.1808335650991081
-0.008307937944557569
-0.136050960520938
0.0008412064989815647
-0.0001743354114391413
-0.00196528620904142
-0.06029653222328357
-0.2358816677882216
-0.01331381547693441
-0.1220124542038154
-0.1572047193610351
-0.01319627923809538
-0.03528866770082204
0.02518206390078067
-0.05787431181753393
-0.07072936539480128
-0.4986196833812494
-0.2187842647062707
-0.0798887290271284
-0.07403002394136247
-0.01974985170128268
-0.1230274732191551
-0.1544725322003304
-0.07559322778006891
0.02265850275789332
-0.08565542738987028
-0.04912317156474792
-0.01487809669290967
-0.1067297942024335
-0.2758923802299685
-0.05805843259060798
-0.01831989129838706
-0.0006348456874656202
-0.01000004693802842
-0.0109513189462936
-0.2223755583825612
-0.0152479014628629
-0.2190376435425061
-0.0102744837206667
-0.07080363666560752
-0.004285354464118148
-0.0232382561587304
-0.3836544045595957
-0.9187066210776961
-0.01132813376976241
-1.042579891278894
-0.6084341301109146
-0.0105156355970707
-0.6623033993426288
-0.1821051870512215
-0.006019334823669935
-0.1287659661133937
-0.01670925995837531
-0.1237167008374861
-0.06602376037676377
-0.08038478869065301
-0.005065729094590657
-0.002266450410496085
-1.345197297419
-0.01140038964603544
-0.1785740964699831
0.0006881141317158041
-1.005433535896224
-1.242712633688554
-0.07977209685696844
0.01760054394295681
0.1645262746673516
-0.004488173134159908
-0.02304645158704103
-0.004178607265414204
-0.2489095356115983
0.3658267335569014
-0.04135491217851801
-0.212428699485126
-0.014897954797785
-0.6498642133054809
-0.07349739444618385
0.1892998600965096
-0.2900648754274656
-0.05011652599573784
-0.06933979279538462
-0.01586474979120674
-0.02167917488226259
-0.5830586091666184
-0.1471564700404261
-0.08789547799583318
-0.1256057314450096
-0.5516807476554434
-0.04454181435400908
-0.9023720931732114
0.0006049843875455437
-0.240612678237481
-1.055519999461806
0.1641557806729567
0.2896967735429437
-0.1827738141416266
-0.190086972458949
-0.2128752687809985
-0.06704158443066791
0.02240452233585876
0.04461779205131262
0.003093216749903571
-0.1657464831259474
0.02587206108206009
-1.364353737251029
-0.08597019425689872
-0.4768655468359436
-0.3337007618031542
-0.2085552142205367
-0.1786288621176917
-0.01690942241476842
-0.01546070961891005
-0.1049871970755709
0.1740205495257629
0.3846537981933508
-0.2031277362632274
-0.1411720001350744
-0.2255912489465514
-0.06289836688804432
-0.1519626087617399
-0.1663202106031255
-0.1265849181659832
-0.1227507803961964
0.4638172574697197
-0.2740065481953612
0.4335259238046187
-0.5948708220725679
0.07225506619005573
-0.1984133472207924
-0.06680650237162797
-0.07627823611505072
-0.8864658033629423
-0.2156228250817653
-0.1922433871238904
-0.3501154828352513
-0.4616279929432269
0.5701544931155138
-0.2123239931732213
0.001611007689209157
-0.06876714430044928
0.3455806128542017
-0.03607768727069024
-0.1317568292404799
-0.1809977887231065
-0.06334935238396822
-0.01651728736286018
-0.1983525918666021
0.1974540407930048
-0.01291428419296672
-0.09725543294431953
-0.1732119601638729
-0.3197000485021312
-0.3104396088486034
-0.06798844817405698
-0.01015851341047161
-0.08148234780804721
-0.6495093570106998
-0.6750678420124483
-0.3341210079501853
-0.05824316465337995
-0.05061051984861355
-0.02514463232213673
-0.06872690278884161
-0.05629773311627223
-0.3624904296870922
-0.9631960904739321
-0.01034072453593223
-0.08393600846859872
-1.144464737486222
-1.039028379895692
-0.1084238742019097
-0.04021990449101375
-0.06884525228848867
0.3885716170250509
-0.3410510013117735
-0.04916463464514406
-0.6030084068642303
-0.1244833044523647
-0.2503915663837671
-0.2130824818921079
0.473417473950349
-0.6328419250830664
0.07632757518704515
-0.02914100803406773
-0.5634590479996813
-0.0529677238411661
-0.3652507605171776
0.1093172750409964
-0.1916821660389442
-0.06043362254392887
-0.1364286745639586
-0.3582312797013684
-0.08446939433513755
0.5158227843198765
0.08645006536060049
0.4695419185039792
-0.1000290715389299
-0.2033181392079109
-0.5173345651393503
-0.1337080921612548
0.02550543468016469
-0.05439601377351686
0.100431663027953
-0.3025411159833435
0.2364299143052129
0.006066533101192602
-0.003064176959118152
-0.5096404907471075
-0.1833232096323079
-0.08187480890021281
0.5816642014789009
0.1392550752980679
0.3428505862580802
0.2255173746022599
-0.565688723931875
-0.1921857120085032
-0.2253198691415214
-0.2248947886025923
-0.06110272724025519
-0.6899109842033155
-0.1903268221396302
0.304743014793257
-0.19041981534262
-0.01141619171620809
-0.1661757194208586
-0.01058078569902397
-0.1605785617612547
-0.4399440586114602
-0.07600858005640451
-0.2040510372484934
-0.07156061920547667
-0.08974740439586566
-0.1430475009051725
-0.07245267136106991
-0.4501464130135685
-0.4113023569870911
-0.02421278884923169
-0.07606407062566403
0.3301404316616087
-0.2491414305191252
-0.1806470501037027
0.5240365041059374
-0.2040866644232197
0.02030439850369049
-0.4525291952576399
0.05079695348810051
-0.06073439292636838
-0.1395965613384846
-0.587517551820828
0.1586495781082692
-0.576660976604832
-0.5380737051098075
-0.1027276815568302
-0.5111230312587206
-0.0368573320524865
-0.1416902037006475
-0.4137946477550483
-0.01617877816305377
0.2881145878113242
0.4899429109311054
-0.161641734370791
-0.006612143670752074
-0.0817948377230721
0.5251389249129458
-0.03290112970026143
-0.4420491378421697
-0.03245677233727959
0.461904263177596
-0.01606145579264947
-0.5469966866152342
-0.2487743224872617
0.1777023214352542
-0.3125731739413523
-0.1806704468941898
0.04843538120303181
0.03250785787840584
0.05567386769767294
-0.3013589788314718
-0.1596874795934037
0.412844390642681
)
;

boundaryField
{
    FrontBack
    {
        type            empty;
    }
    Top
    {
        type            zeroGradient;
    }
    In
    {
        type            zeroGradient;
    }
    Bottom
    {
        type            zeroGradient;
    }
    Out
    {
        type            fixedValue;
        value           uniform 0;
    }
    circle
    {
        type            zeroGradient;
    }
}


// ************************************************************************* //
