/*--------------------------------*- C++ -*----------------------------------*\
| =========                 |                                                 |
| \\      /  F ield         | OpenFOAM: The Open Source CFD Toolbox           |
|  \\    /   O peration     | Version:  2412                                  |
|   \\  /    A nd           | Website:  www.openfoam.com                      |
|    \\/     M anipulation  |                                                 |
\*---------------------------------------------------------------------------*/
FoamFile
{
    version     2.0;
    format      ascii;
    arch        "LSB;label=32;scalar=64";
    class       surfaceScalarField;
    location    "34.3";
    object      phi;
}
// * * * * * * * * * * * * * * * * * * * * * * * * * * * * * * * * * * * * * //

dimensions      [0 3 -1 0 0 0 0];

oriented        oriented;

internalField   nonuniform List<scalar> 
1171
(
-0.945425
0.945425
0.781734
-1.08872
0.30699
-0.409959
-0.719422
1.12938
0.0545748
-0.0630664
-0.275754
0.33882
-0.781734
0.0908154
0.690919
0.947645
-0.208895
-0.73875
0.858069
-1.03764
0.179567
-0.356451
-0.0344251
0.390876
-0.00154403
0.606591
-0.605047
-0.449518
0.931548
-0.48203
-0.419517
1.02677
-0.168701
0.300515
0.0683758
-0.368891
1.00848
0.0182904
0.322571
-0.0220561
1.04657
-0.0380959
0.622631
-1.03259
-0.790576
0.610333
0.180243
0.409614
-0.859132
0.562682
-0.916503
0.353821
-1.07866
0.668413
0.410248
-0.64214
0.640596
0.0353747
-0.255737
0.220362
0.0070004
-0.620997
0.613997
0.466589
-0.501014
-0.8456
0.888058
-0.0424573
1.01524
0.031332
0.921378
-1.07649
0.155108
1.0511
-0.0358569
-0.703845
-0.0867306
1.24487
-0.8497
-0.395173
0.205499
-0.0738377
-0.417148
0.490986
-0.274006
0.181886
0.0921205
-0.603419
-0.485305
0.971061
-0.0496836
-0.0113246
0.866027
-0.854703
0.519839
0.725034
0.532754
0.0253993
0.44119
-0.78579
-0.105598
0.891388
0.59271
0.227399
-0.820108
0.0249473
0.580815
-0.605762
-0.507499
-0.571162
-0.388605
-0.687881
0.0290877
0.243015
-0.272103
-0.940141
-0.0273562
0.967497
0.376171
0.0147046
0.866118
0.081527
-0.603213
-0.0389266
0.0395748
-0.825365
0.180373
0.89285
-1.07322
-0.403518
0.0180841
0.385434
-0.707088
-0.233053
-0.69321
0.873583
0.599136
0.332413
-0.579648
0.988353
-0.817771
-0.170581
0.0702168
-0.182966
0.112749
-0.457538
-0.0434756
-0.304429
0.903565
-0.0199727
0.446552
-0.426579
-0.470693
1.0634
0.711231
-0.816829
0.393369
-0.0819579
-0.311411
0.769545
-0.769545
-0.952724
0.0378838
-0.313638
-0.695752
0.684427
-0.0300333
-0.141926
0.17196
0.893592
-0.0275646
1.03918
-0.811786
0.222052
-0.317888
0.0958362
1.00574
-0.139625
-0.67999
-0.0417795
0.72177
0.149131
-0.233866
0.0847352
0.807063
-1.01596
-0.445655
0.312653
0.133003
0.63901
-0.632009
0.88168
-0.397599
-0.484081
0.493076
-0.694949
0.0374157
0.657533
0.185634
0.664165
0.0518306
-0.715996
0.132041
-0.0941572
-0.516611
0.113093
0.0345817
-0.90163
0.867048
-0.552621
-0.76294
0.0590943
0.500763
-0.0595732
0.274519
-0.833061
0.558542
0.42418
0.57582
0.596282
-0.556707
-0.373396
-0.0421733
0.41557
0.552506
0.217039
-0.643626
0.668573
0.0836144
0.897878
0.00206426
-0.682055
-0.765603
0.800184
0.622386
0.101288
0.373074
-0.474362
-0.156952
0.496449
0.0843652
0.796914
-0.613544
-0.18337
0.650392
0.337961
-0.428451
0.70234
-0.601053
0.410281
0.152401
-0.0566961
-0.665452
-0.131586
0.797038
-0.121361
-0.648184
-0.612464
0.364615
0.24785
0.657105
-0.655041
0.308787
1.0232
0.0159836
-0.765603
0.010018
0.0601988
0.711231
0.779804
-0.779804
0.842535
-0.828534
-0.0140011
-0.455057
0.879237
-0.191978
-0.324633
0.762931
-0.668658
-0.0942723
-0.800481
0.135028
0.108886
-0.712099
0.816829
-0.973781
-0.170918
0.184444
-0.0135254
0.125535
-0.985517
0.859982
0.550865
-0.0181118
-0.291591
0.596488
-0.304897
-0.65337
0.778905
-0.160666
0.739342
-0.795959
0.0566167
1.2087
-0.675105
-0.533596
0.723108
-0.0717214
-0.0144062
0.0205437
-0.00613754
-0.801866
-0.950826
0.231403
-0.695752
0.572201
-0.554117
-0.11615
0.734917
-0.618767
0.779604
0.165821
0.492456
0.507544
0.00396771
-0.628604
0.624637
0.675546
0.121368
-0.723108
0.800184
0.178716
-0.434453
-0.0297986
0.00838383
0.0214148
0.669222
-0.441932
-0.22729
0.690919
0.0082346
-0.211483
0.539768
0.129454
-0.0100727
0.00143082
0.00864188
0.00272984
-0.017136
0.118206
-0.200164
-0.94047
0.0376844
-0.140286
-0.0527118
0.112794
0.758974
0.742758
-0.166939
0.371347
-0.487497
-0.162989
0.385042
0.637386
0.0535326
0.230748
-1.05928
-0.973781
0.316598
0.684427
-0.157762
0.0158353
-0.796659
0.978356
-0.181697
0.482993
-0.0975592
0.795327
0.305051
0.250935
0.0716361
-0.680611
0.680611
0.223284
0.668104
-0.0121366
0.458689
0.478849
0.00781796
-0.0376166
0.549222
0.00164326
-0.65337
0.571118
0.191812
0.0321164
-0.0115727
-0.637386
0.177654
0.800703
0.0217053
-0.736316
0.714611
0.757044
-0.822905
0.0658613
-0.779604
-0.030691
0.0419853
-0.0112943
0.0834966
-0.134797
-0.108705
0.243502
-0.00648531
-0.00358739
0.784871
-0.763166
0.849209
0.280172
-0.505995
-0.429247
0.935242
-0.00157113
0.00157113
0.14227
0.338346
0.803105
-1.14145
-0.200346
-0.562613
0.762959
-0.0197571
0.191717
0.386317
-0.237186
1.03204
-0.693697
0.721867
0.929607
-0.126502
0.19434
0.778905
0.610204
0.250939
0.637119
-0.648184
0.319389
-0.0590096
-0.0187986
0.0778083
0.851656
-0.0728766
-0.778779
-0.572108
0.536251
0.544943
-0.572108
-0.610204
0.536251
-0.00461601
0.973016
-0.123808
-0.552506
0.472556
0.0799498
0.512483
0.631306
-1.14379
0.471175
0.560868
0.619674
0.495453
-1.11513
0.372326
0.557281
0.472556
-0.517135
-0.526646
-0.715015
-0.495771
-0.0610415
-0.00294752
0.00294752
0.682054
0.557198
-1.05297
0.745102
-0.372028
-1.08992
0.414813
-0.67438
0.441327
0.0448843
-1.00185
0.956965
0.451167
0.0899959
0.76166
-1.1992
-0.963083
-0.0177987
0.980882
0.256346
-0.0607268
-0.195619
0.752043
-0.801726
1.02094
-1.04988
0.0289317
0.0466898
-0.660234
-0.0854546
0.861089
-0.775634
-0.887261
0.933951
-0.641717
0.618952
0.0227648
-0.888058
0.280377
0.607681
0.00289031
-0.00446144
0.426921
0.17826
-1.04598
0.867724
-0.723465
0.727433
1.02974
0.0532029
-1.08294
0.0666563
0.0055043
0.410065
-0.358483
0.0405941
0.981342
-0.936457
-0.607886
-0.74664
0.0864057
-0.132155
-1.0649
0.0150192
0.5851
-0.213754
-0.0508293
0.307175
-0.479804
0.760181
0.484081
-0.911853
-0.834058
0.138958
-0.242469
0.704625
-0.462155
-0.107931
-0.850355
0.578599
0.178445
-0.224821
0.986481
0.916152
1.01465
-0.999632
0.0450749
-0.0450749
-0.0922412
-0.281408
0.220682
0.342965
-0.026367
0.25917
0.87855
0.00457338
-0.0110587
0.658069
0.341931
0.797507
-0.603419
-0.758254
-0.535032
-0.493794
0.493794
-0.206604
-0.107034
0.669114
-1.00222
0.333105
-0.484669
-0.570961
0.359861
-1.04774
-1.01022
1.03915
-0.628513
0.714919
0.682383
0.200157
-0.882539
-0.512267
-0.164488
0.838542
-0.674054
0.131668
-0.0011837
0.00365319
-0.00246948
0.0345392
-0.315948
1.02898
0.616521
-0.325456
-0.291066
0.420902
0.73932
-0.516036
0.00997593
-0.283982
0.199091
0.72769
-0.926781
-0.36536
-0.0548923
0.13027
-0.924953
0.146174
-0.802062
0.0564247
0.780706
-0.837131
-0.912984
0.110922
0.703984
-0.758876
0.231416
-0.366213
-0.377118
-0.135149
0.371738
0.74274
-0.0403992
0.00399832
-0.00399832
-0.00151669
-0.037856
-0.0211536
-0.0193785
0.0239519
-0.590871
0.330979
0.76709
-0.862233
0.0951429
-0.771039
0.827464
0.766655
-0.062671
-0.759344
-0.15364
-1.19968
0.0206835
0.0243914
-0.39178
-0.844798
-0.834783
0.43961
-0.277755
0.325352
-0.0475969
-0.613535
0.221755
0.549044
0.712644
-0.0327478
-0.019964
1.0601
0.483744
0.211432
-0.695176
-0.435569
-0.177966
-0.00663292
0.00544922
0.731412
-0.862998
0.00712681
-0.00712681
-0.692081
0.707801
-0.015719
-0.486398
-0.0827401
-0.708968
-0.0258587
0.650495
-0.0504482
-0.873455
-0.0146794
0.261169
-0.24649
0.87002
-0.774877
0.336419
0.260039
-0.596458
-0.113386
-0.737339
-0.0997919
-0.208338
-0.0405381
0.470762
-0.514238
0.155197
0.733357
-0.888554
0.493076
-0.17025
-0.107505
-0.0306326
-0.00990546
0.59618
-0.090293
-0.505887
-0.282784
0.303258
-0.0204741
0.56938
0.175723
0.0293161
-0.309709
0.167114
0.142594
0.0182519
-0.0082339
-0.241545
0.0123808
0.21195
-0.224331
0.868041
-0.413267
-0.0731317
0.553865
0.256002
-0.581458
0.416387
-0.416387
-0.199819
-0.400725
-0.213054
-0.400725
-0.643332
-0.849475
0.180817
-0.192585
0.736878
0.0420626
0.188755
0.553984
0.107812
0.116036
0.0106949
-0.126731
0.0685842
0.800047
-1.06674
0.637488
0.0661044
0.0422608
-0.108365
-0.736725
-0.176502
-0.54733
0.758762
-0.55156
0.0976946
-0.1076
-0.337778
-0.0820366
0.0820366
0.0405862
0.00139906
0.136719
0.317118
-0.758135
0.210805
0.0473057
0.471032
0.528968
0.756749
0.0225438
0.0247737
-0.0473175
-0.290611
-0.582845
-0.517167
0.111835
-0.117047
0.00521186
-0.109036
-0.414926
0.0142902
0.636205
-0.58025
-0.156475
-0.0852711
0.0399343
0.0214037
-0.265742
-0.195909
-0.17743
-0.022734
-0.487119
0.423167
0.0639511
0.0108879
0.29317
-0.864333
-0.535753
0.704789
-0.846151
0.732765
0.464193
-0.0390358
0.06898
-0.0299442
0.0525873
-0.633576
0.00184981
0.631726
-0.893461
0.63177
-0.724011
-0.0275858
0.00655068
-0.00655068
-0.299733
0.459894
-0.0498282
0.00485221
0.0176916
0.581987
0.503963
-0.687333
0.013236
0.00718567
-0.00318735
0.00321614
-0.00321614
-0.510592
0.686315
0.0131234
-0.0131234
-0.775916
-0.00819101
0.0110813
-0.481183
0.691987
0.544478
-0.560197
0.0679599
-0.0679599
0.0216891
-0.0593057
0.0142867
-1.03752
0.503924
-0.558189
-0.00446144
0.593463
0.012866
-0.606329
-0.699106
0.118856
-0.319351
-0.0126496
0.332
-0.0178523
-0.0148955
-0.601589
-0.0319864
0.0243914
0.00577281
0.00135399
-0.00237232
0.00237232
-0.52225
0.297919
-0.447227
0.134357
0.66315
-0.141192
-0.000345137
0.000345137
0.508448
0.0414328
0.00812181
0.0178407
-0.0012453
0.597363
-0.55593
-0.757377
0.684245
-0.0982954
0.323492
0.791691
-0.00151669
-0.113248
0.101675
-0.656366
0.551189
-0.239755
-0.105643
-0.0229904
-0.0257207
0.00539517
0.480493
-0.0895292
-0.416358
0.7052
-0.00026862
0.00823114
-0.00823114
-0.220079
-0.205132
-0.57282
0.614882
-0.147741
0.506958
-0.227249
0.84988
0.910969
0.00577281
-0.76714
0.699486
-0.0185087
-0.0699038
0.0884124
0.695133
0.0930693
-0.0131604
0.0729806
-0.0598203
0.0107881
-0.0107881
-0.770781
0.0228849
-0.0425621
0.0604029
-0.0879688
0.0879688
0.00718567
-0.00186183
0.75689
0.0438124
-0.320113
-0.0948138
-0.520286
-0.10378
-0.069026
0.069026
-0.0256284
0.0799972
-0.0799972
0.0290272
-0.0290272
-0.353974
-0.0744765
0.242252
0.0704007
0.0561698
-0.730188
-0.0586392
0.1621
0.0166162
-0.255703
0.0798554
-0.0798554
-0.465646
-0.0485916
0.232993
-0.0126308
0.00340049
-0.64002
0.644636
0.0697335
-0.0953619
-0.0196106
-0.0396951
-0.0120373
-0.155056
0.167094
-0.150223
-0.21599
-0.0832653
0.0832653
0.0559632
-0.0559632
-0.0301087
-0.0947333
0.124842
0.0178783
-0.186948
-0.0107666
0.00757921
-0.309094
0.607013
-0.0260734
0.382893
0.00603513
0.00260675
-0.0537534
0.0537534
-0.722162
0.321976
-0.127636
-0.211198
-0.0226679
-0.0207113
0.0241118
0.203265
0.040237
-0.00145823
0.000212925
0.0823203
0.0295149
0.0547361
0.107364
-0.0173705
-0.00259357
0.00110434
0.00658143
0.00447839
0.0101683
-0.0146467
-0.00104547
0.00576651
0.0287225
-0.0287225
0.0522693
-0.0411148
0.0411148
-0.191368
0.00918818
0.0253969
-0.0770987
0.0182392
0.0758416
-0.0758416
0.267216
-0.245694
0.0954713
-0.0680106
-0.177684
-0.0170313
0.0170313
0.405766
0.251767
-0.516964
-0.080761
-0.0362861
0.540123
-0.0017323
-0.0730108
-0.470324
0.0805112
-0.154921
0.172383
-0.0174614
-0.0463267
0.0463267
0.872202
-0.591892
-0.011858
0.0108125
-0.00593213
-0.283536
-0.00014176
0.0047035
-0.0428039
-0.621679
0.568878
-0.655565
0.0142392
0.198565
0.0152726
0.0247262
-0.160853
-0.337003
0.259904
-0.0573494
0.0272408
0.170597
0.132661
0.15539
0.268665
-0.253393
0.00583238
-0.112939
-0.223848
0.0690406
-0.0143045
0.165755
-0.141029
-0.06851
0.15083
-0.395526
0.127831
-0.109592
0.0602087
-0.476566
0.177086
0.175209
-0.243719
0.00430828
-0.175672
0.17553
0.00401381
0.146817
-0.0279914
0.051883
0.456565
0.0116912
0.0318774
-0.00403078
0.0346821
-0.241309
-0.204
0.588693
0.170908
0.0620847
0.0806322
-0.0632478
0.0927962
-0.00438377
-0.0301547
0.168657
-0.154418
0.0372726
-0.00427879
-0.103846
-0.0288557
0.034679
0.253646
-0.00613079
0.0531011
-0.313549
-0.00570734
0.215803
0.144895
0.177081
0.0561633
0.0987685
0.0452695
0.536717
-0.0135424
0.101125
0.0444593
0.0642775
-0.108737
-0.265197
-0.201058
0.0233747
-0.222921
0.290174
)
;

boundaryField
{
    FrontBack
    {
        type            empty;
    }
    Top
    {
        type            calculated;
        value           uniform 0;
    }
    In
    {
        type            calculated;
        value           uniform -1;
    }
    Bottom
    {
        type            calculated;
        value           uniform 0;
    }
    Out
    {
        type            calculated;
        value           nonuniform List<scalar> 10(1.09085 1.02962 1.24166 0.933193 1.12676 1.05305 1.23925 1.05563 0.616206 0.613778);
    }
    circle
    {
        type            calculated;
        value           uniform 0;
    }
}


// ************************************************************************* //
