/*--------------------------------*- C++ -*----------------------------------*\
| =========                 |                                                 |
| \\      /  F ield         | OpenFOAM: The Open Source CFD Toolbox           |
|  \\    /   O peration     | Version:  2412                                  |
|   \\  /    A nd           | Website:  www.openfoam.com                      |
|    \\/     M anipulation  |                                                 |
\*---------------------------------------------------------------------------*/
FoamFile
{
    version     2.0;
    format      ascii;
    arch        "LSB;label=32;scalar=64";
    class       volVectorField;
    location    "536.5";
    object      U;
}
// * * * * * * * * * * * * * * * * * * * * * * * * * * * * * * * * * * * * * //

dimensions      [0 1 -1 0 0 0 0];

internalField   nonuniform List<vector> 
808
(
(0.7562725481323536 -0.01751517656325696 0)
(1.031548724666026 -0.01259863386360663 0)
(1.111370974528149 -0.004492726358567202 -1.71668423199969e-20)
(1.085126197856956 0.01258319382518998 0)
(1.362210336571606 0.01280915318110601 -3.816098853345116e-19)
(1.038747218866301 -0.009427146753189952 -7.325537944812575e-20)
(1.014529718964164 -0.02089611587476 -2.438831130405183e-20)
(1.079241730713483 -0.005189315520041654 9.050428775814684e-21)
(1.253723405278302 -0.02170176895513897 6.257483089909327e-20)
(1.085323104366857 0.009427665971841409 0)
(1.00757118741695 -0.009909956012418807 0)
(1.304879568217928 -0.05460918588397811 -3.461325008175872e-19)
(1.086418183742959 -0.001965899226516357 2.044775248049597e-20)
(0.6752053280606456 0.00635625270919435 0)
(1.275122964712002 -0.11926174512271 0)
(1.081777096215379 -0.0004508236086826421 -3.871883160736108e-20)
(1.223948785398828 -0.1471817604897077 -9.515596764507789e-20)
(1.074203988218782 -0.0003576957758887754 3.210440884674302e-20)
(0.9888874974307424 0.004019631621358932 0)
(1.026683743547898 0.009633851137661213 0)
(1.032774895251185 -0.01375316875335984 0)
(0.9875865171472832 0.04521910341402283 0)
(1.051070742587798 -0.006056602431825867 5.806370454955241e-20)
(1.053821192566139 0.008791291810270994 0)
(0.93345109541031 0.1987827863458848 4.567960130625859e-19)
(1.16149762481166 -0.08702311001187293 0)
(1.185395276038431 -0.01989418159138098 1.5400494400384e-19)
(1.077242437962897 0.009671685741073303 5.235485983893974e-20)
(1.083667642082552 0.002081227734640952 5.125287446395129e-21)
(1.071757863002377 0.03091768493736463 0)
(1.075253249493758 0.002770070027708466 -1.183733594308954e-20)
(1.033307267413219 0.006689153182405567 -1.875497873634852e-19)
(1.060074881169597 0.01451358962685805 -2.350478480070568e-20)
(1.088756270079868 0.005638802522820502 -2.938987515862937e-20)
(1.121706081919122 0.03766806481720821 0)
(0.7548907206055226 -0.1216287208221897 -4.549733168376465e-19)
(0.9547703210044058 -0.005807008385547217 0)
(1.068762417324842 0.02222858022073604 0)
(1.068800309607802 0.007222156295328545 0)
(1.073794583541174 0.008707674547200036 -2.818377272938682e-20)
(1.093279498160489 0.02369018133613055 1.079223626935662e-19)
(1.150751896173506 0.002342234036486146 2.11567007783538e-19)
(1.09581241451156 -0.002273801876536708 0)
(1.015166705688618 -0.009342643193827115 0)
(1.129431472540979 -0.09301791441185633 -1.629506837235632e-19)
(1.044070776267574 -0.01169955581588591 -8.372633983057526e-20)
(1.058148487741731 0.02665271530345466 -2.675828533588603e-20)
(1.23020219979907 -0.1126644684630275 -5.559580902099985e-20)
(1.06748414789792 0.01202342690937992 -4.07171761949153e-20)
(1.257564747048737 0.01509521933472314 0)
(0.9970614403830776 -0.01918694246892444 2.214646033969041e-21)
(1.044751518276984 -0.002247546940181233 0)
(1.087446215868183 -0.002136243979694627 0)
(0.9989036563464555 0.007832544694139638 -1.885243773431061e-20)
(1.25146182238309 0.03278795868596819 -2.39061106264566e-19)
(1.063425416204326 0.01810786042866522 5.873772280114682e-20)
(0.990517566595153 0.01146646273257922 0)
(1.015511495268102 -0.006695607374207961 2.529120128457165e-20)
(1.107529025554271 -0.001267984017176206 -1.1555859154969e-19)
(1.061202269969833 0.03123984821198235 0)
(-0.08660489318902553 -0.007964312433877766 7.701509582252906e-20)
(1.154344426429024 -0.05241462091052013 -1.847662629764199e-19)
(1.004569585760531 -0.005683768750476405 -2.777664890359302e-20)
(1.188206575614159 0.06653452884076137 -1.205418380985513e-19)
(0.9970970027817145 -0.009814658670433987 3.10428236380742e-20)
(1.084174576404685 -0.005455287853075488 0)
(1.248974160708226 0.09274344010117536 0)
(0.6960812102134518 0.003162661976651045 -7.423027006610874e-20)
(0.9882879793506717 -0.01485688196199541 -3.234001049228013e-20)
(1.458031273955483 -0.02008195226640403 4.395379972046077e-19)
(1.06054587843024 0.007605837448190264 -6.529720197467743e-20)
(1.366399929750027 0.09294354329371578 2.838032868503696e-19)
(1.054869131863728 0.006801194714302644 -1.955105807956746e-22)
(1.080945116116399 -0.01398760197311301 -2.409732779613217e-22)
(1.163622921142754 -0.2357371067695492 0)
(1.022157427481228 -0.01512088430825007 0)
(1.017307428864473 0.01808850252811923 -2.993197149066512e-20)
(1.38807332750558 0.3488007966883841 4.229374805664412e-19)
(1.097443094165395 -0.04244360432789413 9.593860183934164e-20)
(1.046414711025067 0.2104790767650726 2.412522618552363e-19)
(1.122932010458434 -0.0611202820363389 1.179588102201083e-19)
(0.9219702990863784 0.00517687922143925 0)
(0.975343698933189 0.01853116045176233 0)
(1.004001939603024 -0.04852751831523563 3.150782895367935e-21)
(1.009958873841414 -0.01371731548610718 7.827672538285142e-21)
(1.030571297345314 0.0268340035100381 1.351795292965872e-20)
(1.526946551278741 0.03359267693154538 3.212676189928347e-19)
(1.290501415864184 0.07005172684760409 5.635356909783656e-19)
(1.07248222510158 0.003089720656296354 -8.819527829951798e-20)
(1.194272888271715 -0.0959023827690791 0)
(1.033881121099885 0.001790948049571005 1.289351343998707e-19)
(1.165158243372544 0.02064548675298048 -3.127062641634855e-19)
(1.001502927614516 0.03252261227582458 0)
(0.9996277091544068 0.00200174470621468 0)
(1.044272755593016 -6.99934170633166e-05 8.008361713280956e-20)
(1.218327561687425 0.1065474458368996 4.07001842318439e-19)
(1.011145300923346 0.006967827176644105 0)
(1.089572603105931 -0.06796780966444285 -1.06661633226131e-19)
(1.151429585416656 0.03603873255358704 0)
(1.216296895152361 0.09101469971689057 -1.906363362426872e-19)
(1.108313024517404 -0.02890669887097103 -7.823702843083424e-20)
(1.027543344416036 0.01192513978653823 0)
(1.085164984272816 -0.004591030078248806 0)
(1.019461039744397 0.02647256003661207 7.836643260291443e-20)
(1.073735160531965 0.05658886473062945 -9.515800268385939e-21)
(1.103719883549187 -0.004215792141807768 6.439278965448817e-20)
(1.106522995708369 -0.09177245396621909 1.50067572572498e-19)
(0.9636613421611504 0.002042221717718176 0)
(1.066030868163079 0.03129636435656818 3.686245389727835e-20)
(1.168130360035013 -0.07689938092624911 2.2581119724005e-19)
(1.052432454020978 0.04728960539465638 -2.848300733723722e-20)
(1.022964802263469 0.06797905129110028 3.646111857671368e-20)
(1.090226020468102 0.02610093112393089 0)
(1.017384513276373 0.01425098993347963 0)
(1.028982784271918 0.009362583859700327 7.838957682578728e-20)
(0.9485379660925666 -0.03243560143018485 0)
(1.052912694400915 -0.005436597952463065 -7.402500877313975e-21)
(1.340824463983504 0.0557167870885658 -1.541105396643012e-19)
(1.079678683618658 -0.01316756443017975 2.666857909884695e-20)
(0.7440571662679207 -0.001734561809797175 0)
(0.5875516856242688 0.1891038077705674 -1.132666933834762e-19)
(0.7060952280730272 -0.002480788751121083 0)
(0.6988253804771013 0.01463786764488575 0)
(1.077737708271744 0.003607701704169063 -6.457759281878675e-22)
(0.9906525588233747 0.01447007053194419 0)
(1.279962891245156 0.1219873241287582 2.551387741811024e-19)
(1.012235933762187 -0.02789497365167462 -7.39014204673946e-21)
(1.043878482255464 0.0165255114072815 1.45111557900969e-21)
(1.058607634818522 -0.01215160084879882 0)
(1.126526321417334 -0.0091523559903906 -5.132570730336348e-20)
(1.271216500443645 0.1273166866505153 -2.249511339246659e-19)
(1.089099733370092 -0.01090204590788622 -8.620845765601656e-20)
(1.070969459559136 0.02622496093086151 -1.069756431783631e-19)
(1.041025645876866 0.04679665888952544 7.425422527954781e-20)
(1.022572173804863 -0.003646948138577804 -3.479118006717219e-20)
(1.060970892133695 0.02367995984738476 5.701707675638321e-21)
(1.138470015449676 0.004219837146756092 1.034285497954004e-20)
(1.039332562187564 -0.01398019704337966 -4.767449048874446e-22)
(1.087399565234728 0.03473555737111247 0)
(1.028357847625357 0.01370593004767744 0)
(0.7817975438226115 -0.07953833785211596 -1.819225324979436e-19)
(1.030294954479992 -0.001848255204363739 -6.541837866194381e-20)
(1.132287646259523 -0.0007448605812036566 -1.24719738359772e-20)
(0.7034605467931392 0.00655556359804228 7.120706927261283e-20)
(1.175322803785631 0.01900451751659989 -1.972357017586341e-19)
(1.136687864066708 0.003975843952867703 5.206135943220608e-21)
(1.129017752177318 -0.01005659008350434 3.366285975951326e-20)
(1.000933343680335 -0.002966407741864502 -6.722947054315662e-20)
(1.101323169643158 -0.05765669267289406 0)
(0.9898678719779841 0.004797011381480636 0)
(1.057834702749822 0.007021898118095816 0)
(1.005976256827554 0.1891265005266213 -2.365702870313898e-19)
(0.7792657046012046 0.01243750873963715 0)
(0.8570391810605658 0.1024698748689079 -8.213509419529101e-20)
(0.09475052000427039 0.0322381596031901 -2.972354932402676e-19)
(1.171832615078562 -0.03175196508516695 -2.292571400819762e-20)
(0.6712591873437901 -0.007340003327221139 2.453872861368259e-20)
(1.163975224881022 -0.1012961086358775 6.934681937866668e-20)
(1.126582778273999 0.0004872543853391864 -5.832102157696123e-21)
(1.153602995206513 -0.04973959155368131 2.227802494527508e-20)
(0.08039477062928108 -0.2045377698041182 0)
(0.2411821841757947 0.06352864485774426 0)
(1.261377573645958 0.1047318351208448 1.855222678514958e-19)
(1.021175306482412 0.01983757147821154 0)
(0.7377088489650681 -0.006254608360292141 0)
(1.074974468837129 -0.0114261355323803 2.742098005392383e-20)
(0.9748805790897331 0.002880746397668868 0)
(1.296657889051406 0.1191806005191514 -1.477269167906216e-19)
(1.057354933893511 0.01095507984681733 0)
(0.9928864931766274 -0.007167408357473893 0)
(1.065178162674956 0.008264478327661478 0)
(1.006243741415272 0.02090777811203172 2.189436882587222e-20)
(0.9340644447065449 0.009769773254428873 1.280116796175662e-20)
(1.175979096396496 -0.1995605861336882 0)
(1.00507245667281 -0.005197732530342665 8.051205516051998e-20)
(1.059193427508254 0.006304383634366452 0)
(0.7745863535102034 -0.003305595750427972 0)
(1.217919822411155 0.02615517412119184 1.618954627313447e-20)
(0.7050258405267167 0.001368610692698242 0)
(1.4330242274503 0.08382870605518529 -5.104560260686709e-20)
(0.9948494887974431 -0.005283719364299369 1.674631057170285e-20)
(1.274162805239202 -0.003988986389985549 -3.006432815410834e-19)
(1.059722592329002 0.009027845319650358 1.327093638760286e-19)
(1.000907808708597 -0.01353338254067774 0)
(1.209391255951022 -0.1449713536252534 2.053470153877916e-19)
(0.73317340927375 0.01378486240596082 0)
(1.098313098663463 -0.004915270542933495 0)
(1.156422928566579 0.06681693384620038 1.888048462421691e-20)
(1.006404490996909 -0.006491689119593751 -3.047648785741643e-20)
(1.122982490746128 0.05163069761654032 -1.717906924094683e-19)
(0.1310232017339488 -0.09408162635788424 0)
(1.073510052002284 0.03888399185102082 0)
(0.66168879463789 -0.002874617270823718 -4.958573442081247e-22)
(1.012105123924086 -0.01958318740542813 9.037274137606705e-20)
(1.061472436864489 0.0008756567187711564 0)
(1.079703237015937 -0.1385640917394204 3.770277777769402e-19)
(1.002676354072524 -0.0061324962356359 -3.290616804060316e-21)
(1.003161865431583 -0.004101738075996239 1.032606736603127e-21)
(1.094003252820292 -0.009199475544328596 0)
(1.020760285366817 0.02030327090978797 -6.651720548221546e-20)
(1.106663503792149 -0.001596560378696225 6.335604669130129e-22)
(1.074476825651314 -0.01078963741992493 6.650923702884313e-20)
(1.085636315543297 0.02216947474397973 0)
(1.325865615908377 0.1555409629306818 0)
(1.002078708512314 0.0005293182828009777 4.407529101589488e-20)
(1.319254575401245 -0.1331225825166628 1.605041824004105e-19)
(0.008386054698258212 -0.1575809510414107 -2.309160204610048e-19)
(1.071104558948295 -0.005356756388496155 0)
(1.111252415227851 -0.005012377061463536 1.164795064607549e-20)
(0.7267527324333981 0.01779726208793974 0)
(1.058153242509902 0.01106703399330277 0)
(0.8614167804285179 0.1613128016409165 4.591654140418183e-19)
(1.284609215406491 0.1239772037198623 1.894041719448942e-19)
(0.6542146356740659 -0.003103338145760108 -6.533031748603281e-20)
(1.039674768268088 0.005450604250820451 -3.966131331709504e-21)
(1.054817277643006 -0.0002059812455386867 6.444032168789434e-20)
(1.362326067142531 0.1165873993676996 6.556789811910214e-19)
(1.336684194559843 0.2519617081450741 0)
(1.058001239494782 0.009579797980742639 0)
(0.9990007140689339 -0.004108453794941617 1.378041679594419e-20)
(0.9932349027008567 -0.00208247755675286 2.681310842230907e-21)
(1.384612511515551 0.1992438681669354 4.325747477116041e-19)
(0.6818583780772495 0.0005012682841406038 9.967841102633709e-20)
(1.005703482379457 -0.002195670101093177 -6.022279010005287e-20)
(1.098161573996005 0.01315290665185259 2.561654375655348e-20)
(0.6694517254688949 0.004951235229478513 0)
(1.066085179951853 -0.01202660049703402 0)
(1.011548401273341 0.1385801503547887 -1.423328416764845e-19)
(1.088556821129094 0.001639691984223347 -2.586033890093073e-20)
(0.9819200751527059 9.236950607730106e-05 3.311207386100451e-20)
(0.9912118191698533 0.005999761090255646 0)
(0.6381241621659475 -0.001096834280275307 0)
(0.9767121160396164 -0.001257965431284486 0)
(0.642029963783596 -0.001416307233920343 2.642140117834123e-21)
(1.087669349097123 -0.05552684181548616 1.214651428946104e-19)
(1.109770469333082 -0.00576058648973814 1.141556809240423e-21)
(0.9579838086250027 -0.0008542587996545517 3.878281662716699e-20)
(1.017221803501203 0.01036727011373412 1.739438885323401e-20)
(1.065674085870317 0.007542316066203539 -2.416988830053534e-21)
(0.6347843463580207 0.008868599109247819 -3.613954531702085e-20)
(1.005799742559091 0.01066254280628779 -6.302306571432274e-22)
(1.037853968029791 0.008059665297298556 5.338831772771027e-21)
(0.9856652107014807 -0.004839074192471208 0)
(0.6099851703338842 -0.0004417555741419855 0)
(1.069008422855796 0.02250499434895545 0)
(1.016167153631581 -0.01687059609811268 1.032124522527866e-20)
(1.023017102024457 -0.006558917321426114 0)
(0.9931510094694347 0.01361869471573698 -9.827043211451701e-21)
(1.009199045729043 0.003741437357268079 0)
(1.134723405546059 0.002664852663053204 -1.214790855342454e-20)
(0.0313123633647167 -0.1412279141221912 -3.897415931881404e-20)
(1.034311596166288 -0.01798568812068402 -5.997751054879301e-22)
(1.043067199669809 0.007459401502798319 0)
(1.084402227066259 0.07046565340805762 8.429008588673186e-20)
(0.9673462836213186 -0.001321478984153743 3.109684417796171e-20)
(1.020071717264975 0.01677477359669659 -2.237055696638449e-20)
(1.005730755075175 -0.002536886284295141 2.399155804226838e-20)
(1.038922082401253 -0.007822369228920939 0)
(0.6409309041528291 -0.004087416995276178 0)
(1.025966108424097 0.02450425489688188 -7.948481639465073e-20)
(1.087361093248152 -0.001109271504514102 5.097125513962325e-20)
(1.012547714763055 0.007607769672635891 0)
(0.9807438821505683 -0.0004068737662098914 -1.935623386422023e-21)
(0.8547595874730212 0.009170801863442761 -1.093990952002628e-20)
(1.013971851144762 0.002731386490453354 -9.507843727567613e-21)
(1.022410521994436 0.002236888274221341 1.866597191014092e-20)
(0.9824762660673652 0.001197327922769425 0)
(1.007664653348012 0.010976597890549 3.215211306149838e-20)
(1.110761531799381 -0.001178015244947672 0)
(0.9343373907273373 0.01207246604116029 -3.183253936457252e-20)
(0.9533902790431962 -0.0004076458029843927 0)
(0.9010933661828184 0.2020667472969601 4.94667867546729e-20)
(1.011147595851005 0.06744979852437584 0)
(0.9908265562725082 0.004863663346035065 -2.284260239914722e-20)
(1.057896342794416 -0.04914107819958689 -2.792500810441587e-20)
(0.9940136325247154 0.0001207838113714333 3.246249590895569e-20)
(1.006792352100573 0.006066251892735268 0)
(0.980286766023484 0.0006546415599679359 -3.007710971747478e-20)
(1.178490646675392 0.1012087990063464 -3.384264420876414e-19)
(1.068436886593621 -0.2641096198724335 0)
(0.9943714784255994 0.0004931948348074043 -2.266939465055911e-20)
(0.9738832904084753 0.003254956892569013 4.759866038125309e-21)
(0.9598667779011262 -0.001616264428478011 1.021140792891835e-21)
(0.7459965428512577 -0.001062814822104535 0)
(1.119704238849879 -0.06940815795889213 0)
(1.003832900978821 -0.0002566013110184197 -2.251392834086449e-20)
(0.9085099851994523 0.008434863755652899 -1.073437363679413e-20)
(0.8406610039728688 -0.001208623368883888 3.625437766330239e-21)
(1.012318127739938 -0.006877399867927296 0)
(0.9622530110624946 0.0137788337264224 1.493169453836016e-20)
(1.005631040237937 -0.000195593679995396 -2.241303077062699e-20)
(1.02646012938736 -0.00212084992325844 -2.480595641521509e-20)
(1.11413734883754 -0.003833631599695825 -4.908176841933327e-21)
(1.116372790960385 -0.004775633327961818 0)
(1.009805636020115 0.0005780963033139942 0)
(1.022822016884761 -0.002963718159064745 0)
(0.944968927322952 0.006494720497144189 -1.982286982481538e-20)
(1.01786406555066 0.01336388271365369 5.625743791532369e-20)
(1.088111795518518 -0.003715798146140334 -2.360716695049519e-20)
(1.038663337319659 -0.003353341300237913 0)
(1.109054100835199 -0.002483300631932899 1.834510099294839e-21)
(0.9942932198875802 0.001075152506134415 -2.245384158937995e-20)
(0.9801473491405668 -0.000820569887753767 0)
(1.009932349481239 0.002447375138948969 4.693169171797937e-20)
(1.363225015770522 -0.3140017518353816 -1.119864529224469e-18)
(1.120686290259165 -0.04448655762645297 -1.110815257323635e-19)
(0.9719163443616834 0.01102420420445211 4.464116192172721e-20)
(0.7671400058076464 0.008754890774442761 -3.571845944768992e-20)
(1.223827579325035 0.04949019291243476 0)
(1.216061083594815 -0.1287962242979531 -1.482115724795928e-19)
(1.085530966412902 -0.004670503600979523 0)
(1.008700435579435 0.0004367332652836841 2.29158169043985e-20)
(-0.2006059750551197 -0.1087663719261739 0)
(0.9939692571699168 -0.004670389215853638 0)
(1.012330928811567 -0.02303616224068613 3.908156789001656e-20)
(0.7064002985077275 -0.01943154711099739 0)
(1.096791033580128 -0.01490737639765613 2.334251007259296e-21)
(1.039089521960275 0.003008805727942602 1.530217671064154e-20)
(0.6332239999029581 0.00413990621344965 0)
(1.446307625455042 -0.1241691404281699 0)
(0.9857742316009399 0.00200533644372719 -1.06661585376275e-20)
(1.069665973966069 -0.01508109849256775 0)
(1.037822020602193 0.0005236103419434167 2.044286481056077e-20)
(1.084151652054939 -0.001225161004232817 0)
(1.012110523817706 -0.0059580725104108 -1.208140148584553e-21)
(1.005998816378179 0.003306997420373785 0)
(1.008004954488217 0.00365029578017467 -1.25830518558298e-21)
(1.004357228522697 -0.02029789746445683 0)
(1.036217890030579 -0.007871251493386942 1.79648308196047e-20)
(-0.1938321963019569 0.04113103502015009 2.812011669237883e-19)
(0.8045042387624652 0.02896152073757664 5.94431421927586e-20)
(1.005071984131168 0.002127033294304696 0)
(1.121860133685457 0.01079996379674132 -1.20634129724662e-20)
(1.110193902147002 0.003905699702519291 9.284024740635943e-21)
(1.054230427749665 -0.01275608727067095 -1.328310154294231e-19)
(0.9987720580597643 0.01040147373397477 -3.108563251247196e-22)
(1.083878699497929 -0.005859637717463844 0)
(1.188943179568555 0.0505787226826041 0)
(0.8350684083898749 -0.07470807050566491 4.607256598123442e-19)
(1.08943525492817 -0.004016014894778143 0)
(1.033836347049022 0.007858720960710433 -7.709406420458945e-21)
(1.042551220745082 0.005361902257859514 5.640881459421305e-21)
(1.053401238172048 -0.05834080826539286 -7.596965999086222e-21)
(1.139389438151879 -0.002066158980217832 1.722885694238787e-19)
(1.081362258472006 0.002374645722638544 0)
(0.9943090222185731 0.001952493801095885 0)
(0.998081166189523 -0.02635329853950319 -2.436718517853656e-21)
(0.9906383639768449 0.003613566920830775 0)
(1.030596181006553 -0.03658127444483934 6.518194858983794e-20)
(1.291391993954553 -0.09818813323304335 0)
(1.040749192282321 0.001471311099627889 -4.199907359525013e-21)
(0.9861871672883166 0.01689312606820012 -9.075723584482279e-20)
(1.033622183475376 0.04316337536078382 -2.320877622448486e-21)
(-0.0758365836572736 0.1885743516085702 -1.739141449758483e-19)
(-0.06989764896345382 -0.2861640414147957 -1.296196359740775e-19)
(0.880371985754725 0.1177627940546953 0)
(0.2769177392388328 -0.027547006380548 -3.012768280008486e-19)
(1.008083823221081 -0.005593103184214861 -9.500957781177807e-21)
(1.063955080958171 0.002715974891847221 -2.062890378528468e-20)
(0.9921467356438393 -0.02175379808379193 3.100330599466419e-20)
(1.026843845394003 -0.03021632605728997 2.690330205594465e-21)
(1.009868765426611 -0.03053493706940882 -6.711887930078975e-20)
(0.988828715395592 0.004884512567407915 -3.492177752048034e-20)
(0.9936825920026128 0.005007140522898155 0)
(1.024454456441411 -0.002201298393986212 -3.475412222636524e-21)
(1.931308446726307 -0.1564900363167634 1.065869249767025e-18)
(1.047431110677819 -0.01038897757320656 0)
(0.9966885207600643 0.007925732472168977 1.488058537922514e-20)
(1.003630133155892 -0.0005498703570979322 3.991532731007841e-20)
(1.169593967860786 0.1593301425161374 0)
(1.006174196616943 -0.01940134373494348 4.919950129849818e-21)
(0.953282383682211 0.003766834717439291 0)
(1.037844909896512 0.04172477430544435 0)
(1.300757358622617 0.1495646149900186 2.217316508769506e-19)
(1.076496644405172 -0.0005870048864440855 2.334647786457522e-20)
(1.016001871246807 0.03065370876141735 4.457247748261011e-20)
(1.078831858490365 0.004226447734411076 -2.247761338766668e-20)
(1.057488506866188 -0.02324545376349755 -5.234389775894216e-21)
(-0.3897189423403095 -0.04468927611950294 0)
(0.9995655609522506 0.01253560626593982 0)
(0.1243120904408915 0.05357815151332426 -9.481713417082824e-20)
(1.005949553156867 0.02035129559328797 -3.990197507971706e-20)
(1.007103545793488 -0.02659725624212529 0)
(1.001071488418457 0.005307974316322257 -4.868962472782054e-21)
(1.08203014475999 -0.04236896556857372 0)
(0.9940406065597562 -0.01881099376281583 -8.141730866597e-21)
(1.100198579700165 -0.05069393752692488 0)
(1.442878217515281 0.1693253000937668 0)
(1.054833911772794 -0.01192292496635047 0)
(0.9915643668887674 -0.02487384879504579 -4.16729093990156e-20)
(0.9926399534826904 -0.02422159284746632 -3.457800590997163e-21)
(1.01673791514542 -0.02184484033377167 -2.172811013943179e-20)
(0.9966303342023193 0.01694677398209048 -5.389517210217962e-20)
(0.9961081544072183 0.009551436875277305 -1.450219209021779e-20)
(0.9954627287895009 -0.02761322745146281 0)
(1.001610779201543 0.02417210779766095 1.873567318265055e-20)
(1.043879035120512 -0.02389250798199651 0)
(1.11088541409195 -0.03639506440520191 2.524876564733837e-19)
(0.9953050886365716 0.01656122583414059 4.458994623878761e-20)
(0.6150398635369234 -0.008695138193515174 0)
(1.155397485705856 0.1612914435119372 8.050522935031626e-22)
(0.8258674060231488 -0.07949061474280003 0)
(1.138626980374048 0.07256436383900981 -2.798836584863506e-19)
(1.314532120786997 -0.3886221075720449 1.277514593114702e-19)
(1.070963606876562 0.06700108989724851 -1.253716399134451e-20)
(1.011773259133576 -0.03048504022736014 0)
(0.9552415822032296 -0.2148099065535234 0)
(0.5497514607948047 0.1781880465169119 0)
(1.0152454458296 0.01323453901859417 1.068883140602785e-21)
(0.709888694470979 -0.01503218432743876 0)
(0.9988084694350001 0.01623064079554429 3.435657797797911e-20)
(1.026515140651109 -0.0009092096140728586 -2.671098485627278e-20)
(1.07902159500436 -0.008018543583345666 2.631254117528298e-21)
(1.054699043320982 -0.0256850964996623 2.534099171096254e-20)
(1.042905913705646 0.01146043261245147 0)
(1.056482095311395 0.02074256255644914 -8.777440675935574e-21)
(1.050749749171889 0.03623128095114112 -1.765262165575599e-20)
(0.9838783107496575 -0.02227963046097649 0)
(0.6248798950805557 0.005113715672068019 9.170650718538909e-20)
(0.8941613073352216 -0.005950530072701399 -8.846120019232626e-20)
(0.9093604985715661 0.005225030866591859 1.451052272368515e-20)
(0.629648695870935 -0.006440255515271115 1.410947393487024e-20)
(0.9809048775831519 -0.0001183580526751422 2.469229474555392e-20)
(1.004408302430074 -0.01754656998332445 -3.303638493901315e-20)
(0.9812801816630903 -0.02816840903576261 -2.734339832298285e-20)
(1.08564184341398 0.001576351751294067 0)
(1.019171656758391 0.005328924178863875 1.051455219484005e-20)
(1.132809738395957 0.04824122070976225 1.349792591547595e-19)
(1.031520535565443 0.04256975399865133 0)
(1.022563468214872 0.002610525373914306 0)
(1.582024079553866 -0.168186536666789 4.357901751927786e-19)
(1.054443775898742 -0.03675169613616504 0)
(1.021190097777668 0.01058914138983077 -3.601914411325399e-20)
(1.082939925055778 0.004287562450807366 0)
(0.4931270328792939 0.003637500554506692 0)
(-0.006259467092949504 0.007583745012612046 0)
(0.9910873328062284 -0.02354248057934592 1.253899579344143e-20)
(1.300585023295969 -0.09680778921213697 3.664675974149498e-19)
(1.030857630523758 0.03677283124954434 0)
(1.022552053023479 0.003566825297929502 -2.17732591137691e-20)
(0.9304919472502072 -0.1613134671472717 -6.317559010724243e-21)
(1.256167120248472 0.07373971549666385 0)
(0.5981722505618273 0.7305454234279705 0)
(1.306935683135088 0.1407114848561966 1.037346921522151e-19)
(1.67468442366674 -0.02666839026116669 0)
(1.064286330926316 0.1333498772593311 0)
(0.7269797555360452 -0.003193940552536637 4.053527933411332e-21)
(1.046349711636234 0.0472231665731298 0)
(0.7479054669815041 0.1140807567927891 1.386869149277658e-19)
(0.9968154270372082 -0.01629198675235172 3.585541474977731e-19)
(1.038786204238451 -0.03912557206397481 2.699491731914306e-20)
(-0.3738109724798137 -0.05527545625436507 0)
(1.072148559986208 -0.01618207911304971 0)
(1.085329393894219 -0.01182756691922641 0)
(0.6480314155370427 -0.5026709037888452 -2.493808846237984e-19)
(0.9903115901006948 -8.791639756449804e-05 0)
(1.092212831792748 -0.02200043246971507 6.816215063277095e-22)
(1.188396487121778 0.120707920870681 -2.047240740086461e-19)
(1.099566949736631 -0.04349496561781754 0)
(1.005740922870409 -0.0207293783846944 0)
(0.7772187093273459 -0.1913363198733964 -1.645288315495624e-19)
(0.8876604885549982 -0.1417438011722868 1.456008902213503e-19)
(1.033986466426574 0.01255105565049019 -2.049592035122186e-20)
(1.023132272817686 -0.009092683593355069 -4.280006706612385e-20)
(0.8722149859795687 0.0006346282544179261 1.03639962035348e-22)
(1.503606643710505 -0.1948090468801742 0)
(1.307509432035537 0.1097731064421012 2.997712932207758e-20)
(1.241026227964853 -0.07800011790337451 -3.263595646457773e-21)
(1.095822589970082 -0.01876371190258714 -4.016218116064434e-20)
(1.037441603693472 -0.01825749123206826 3.088204926478338e-20)
(1.092812979884441 -0.0391323352539811 9.560855628748266e-20)
(1.032363716871054 0.02051021461768008 0)
(1.051436737247037 -0.03448876973874344 0)
(1.115892684357132 -0.008998631352320265 0)
(1.100691870565475 -0.03822008688018815 0)
(0.9982698802811788 0.01079351754720791 0)
(1.1539741486918 0.07978440105391559 9.393070755963993e-20)
(1.342302748141829 -0.1600934508717584 0)
(1.04081911008027 -0.02693694104955404 -2.588910855065807e-22)
(1.048562134845926 0.05455689649289457 0)
(1.010090327392743 0.01415805138803965 -3.795928351956271e-20)
(1.033565746209463 -0.00769578194180476 9.378239952033033e-21)
(1.088969369262947 0.0133884390846471 -3.16664944625845e-20)
(1.084335910317341 -0.02870067815083047 0)
(1.07283191875556 -0.0002097572497994499 0)
(1.101119786721248 0.09244696169059445 -1.397157106370941e-18)
(0.9350811490448109 -0.1488884918414491 -7.107731011200189e-20)
(1.178533079949224 0.1156981998772939 1.143648166007608e-19)
(-0.4551245209799295 -0.03063973013461968 -2.918373210975955e-19)
(1.018323431247432 0.02967230925533657 -8.551276085368677e-20)
(1.00720631994492 -0.0002217624242029446 0)
(-0.2422969046760015 -0.003108863965671477 3.579087378103335e-19)
(-0.03356278016665667 0.3174675382411982 7.665068641462007e-21)
(0.995207940034431 -0.006296075089870888 8.940327805942467e-20)
(0.1829651937162593 -0.0446872828700625 1.28320762565266e-19)
(1.088287226487403 0.09145053097541266 1.426663135069815e-20)
(0.09339029124109653 -0.10887084509958 -5.393677662472144e-20)
(1.108312806587614 0.003100985573839597 0)
(1.094181158850074 0.2489867418783726 0)
(1.021075863465029 0.02166515017976585 -1.6747459755807e-20)
(1.062313244697634 0.05730607798197544 0)
(1.024682448230278 0.02383533845922282 -8.294578133993452e-21)
(1.261476191102385 -0.5482657319339708 7.991713739092722e-19)
(-0.09911196873197123 -0.238972891264319 2.075266497664529e-19)
(1.299739655442967 0.1107906179901107 -6.116362350773476e-19)
(1.123845971016302 -1.394306178436818e-05 0)
(1.128167738013172 0.1080918973521635 0)
(0.5199706449816314 0.07590718565265235 2.400754427642733e-19)
(1.023213062533334 -0.02041906704313322 9.603473979638057e-20)
(1.005959884048072 -0.02313089058613568 0)
(1.212269326894398 0.2708709585926624 -9.803083153097125e-20)
(1.254875291019694 0.125454433955809 -1.49225776650312e-19)
(1.026494309537631 0.003008491948925934 1.593681711426896e-20)
(1.296375463449414 -0.08517342906339623 -4.947968418654733e-19)
(0.3095966795210034 -0.02405737556432747 2.921215501824405e-19)
(0.8347881081317973 -0.1505382131000585 6.933342642644881e-19)
(1.045815664064483 0.06320044616481285 1.102015274570084e-19)
(1.038823756367408 0.001577413414647131 1.418200381450173e-21)