/*--------------------------------*- C++ -*----------------------------------*\
| =========                 |                                                 |
| \\      /  F ield         | OpenFOAM: The Open Source CFD Toolbox           |
|  \\    /   O peration     | Version:  2412                                  |
|   \\  /    A nd           | Website:  www.openfoam.com                      |
|    \\/     M anipulation  |                                                 |
\*---------------------------------------------------------------------------*/
FoamFile
{
    version     2.0;
    format      ascii;
    arch        "LSB;label=32;scalar=64";
    class       volVectorField;
    location    "46.7";
    object      U;
}
// * * * * * * * * * * * * * * * * * * * * * * * * * * * * * * * * * * * * * //

dimensions      [0 1 -1 0 0 0 0];

internalField   nonuniform List<vector> 
808
(
(0.897988 -0.00821998 0)
(1.00472 -0.032006 0)
(1.26133 0.227823 0)
(1.06647 0.010174 -3.15677e-21)
(1.45018 -0.282977 0)
(0.952373 -0.0309165 0)
(1.15155 -0.0418175 -7.37185e-21)
(1.09403 0.00323448 0)
(1.328 -0.217472 1.4045e-20)
(1.22417 -0.0941917 5.53597e-21)
(1.19241 -0.220792 6.46596e-21)
(1.35458 -0.249529 0)
(0.991046 -0.00392475 0)
(0.737147 -0.0153214 0)
(1.21239 -0.126733 2.57352e-20)
(1.10732 -0.00502728 0)
(1.10265 -0.121282 -9.02744e-21)
(1.02419 -0.0267804 -1.80312e-22)
(1.31046 0.161855 0)
(1.12372 0.00418583 0)
(1.31356 -0.205935 -9.02533e-21)
(0.928756 0.136317 1.03723e-19)
(1.06926 -0.00110792 -1.18643e-20)
(1.16641 -0.0325038 0)
(0.972887 0.203673 0)
(1.23518 -0.1053 -3.10342e-20)
(1.25665 -0.17389 -4.24302e-21)
(0.988743 -0.0232838 -7.46888e-21)
(1.12985 -0.0337484 0)
(1.05511 0.0359261 -6.96168e-23)
(1.03107 -0.0532054 7.48112e-24)
(1.1225 -0.00619987 0)
(1.02397 0.0383622 0)
(1.11139 -0.0239012 6.05925e-21)
(1.28041 -0.0841432 2.45224e-21)
(0.743982 -0.0882227 1.14094e-19)
(0.869521 -0.0265003 -1.29131e-20)
(1.03042 0.0349336 8.8334e-22)
(1.17375 0.0195971 -7.02478e-21)
(1.07234 0.0193685 0)
(1.25782 -0.0663098 -3.13147e-21)
(1.26397 -0.129632 0)
(0.991037 -0.00684089 -8.18767e-21)
(1.12457 -0.0497508 1.20614e-20)
(1.04759 -0.216642 0)
(1.00883 0.0132608 -1.70027e-20)
(1.0084 0.0258171 2.34872e-21)
(1.23416 -0.241467 -1.68429e-20)
(1.14851 0.0457466 -1.45197e-20)
(1.38139 -0.185606 -2.0288e-20)
(1.14787 -0.0346314 1.18561e-20)
(1.14274 -0.074146 0)
(1.10861 -0.014885 7.38775e-21)
(1.14164 -0.0969995 0)
(1.33713 0.175911 8.29924e-21)
(1.04002 0.0474012 -5.34612e-21)
(1.16825 -0.112704 0)
(1.09355 -0.17968 2.40894e-21)
(1.22766 -0.0934784 -5.94252e-21)
(1.12222 0.0524526 -1.94315e-21)
(-0.153912 -0.5691 0)
(1.20306 -0.203378 3.48647e-21)
(1.02605 -0.099551 0)
(1.42009 -0.108112 -1.70965e-20)
(1.09483 -0.0958744 -1.42399e-20)
(1.02993 -0.0286188 -8.96329e-21)
(1.29806 -0.145834 1.68555e-20)
(0.645796 0.00502858 0)
(1.1668 -0.0835822 0)
(1.4157 -0.342263 0)
(0.894126 0.0181302 -4.39072e-22)
(1.22081 -0.140334 -3.07558e-20)
(0.997082 0.0298043 0)
(1.04469 -0.0506442 -6.06839e-21)
(1.10496 -0.318007 -6.58221e-20)
(1.18177 -0.0409064 -1.00576e-20)
(1.14118 0.0398118 -2.86864e-22)
(1.36967 0.490955 2.79804e-20)
(1.10441 -0.0263104 0)
(1.02538 0.296501 -1.65241e-19)
(1.27477 -0.0478902 1.44393e-20)
(0.752653 0.0207885 0)
(0.857755 0.051334 -1.18791e-20)
(0.966607 -0.106227 4.77422e-21)
(1.13608 -0.0731753 6.19659e-21)
(1.18966 0.0217969 3.93609e-22)
(1.26397 -0.229743 0)
(1.38171 0.252102 0)
(1.08323 0.00114114 -2.75298e-20)
(1.44233 -0.0912783 2.84027e-20)
(1.08463 -0.014791 2.22126e-20)
(1.29691 -0.128532 -7.47881e-22)
(0.968833 0.0279175 1.5031e-20)
(1.00396 -0.0284348 0)
(1.09943 0.00311736 1.5324e-21)
(1.25968 -0.124556 -4.62705e-20)
(0.779088 0.0239171 -3.48137e-21)
(1.21433 -0.0553061 0)
(1.31675 -0.0934763 0)
(1.38724 -0.123389 -2.69607e-20)
(1.10236 -0.0468435 -6.79644e-21)
(1.12585 0.0158061 -2.80415e-22)
(0.943731 0.0295169 1.85442e-20)
(1.18244 0.0303942 3.37271e-22)
(1.34052 0.036937 -1.78959e-20)
(0.995718 -0.000690286 1.16784e-20)
(1.32164 -0.088612 0)
(0.806688 -0.0890879 0)
(1.07576 0.0410726 1.19518e-20)
(1.18307 -0.209465 -1.25434e-20)
(1.27802 0.0239619 4.6792e-21)
(1.0506 0.0501953 -1.1477e-19)
(1.13857 0.0465295 -4.84009e-21)
(1.04608 0.0201208 1.02043e-20)
(0.801106 0.0206881 0)
(0.917428 -0.0362342 7.76795e-20)
(1.12935 0.0398169 -1.34334e-20)
(1.40664 -0.255063 -1.10181e-20)
(1.11372 -0.0541841 -1.00391e-20)
(0.929527 0.012845 2.46905e-21)
(-0.0560785 -0.390359 0)
(0.844559 -0.0178487 1.18668e-21)
(0.778882 0.0279835 0)
(1.05616 0.00244951 -1.40933e-22)
(1.0162 0.0275841 0)
(1.34108 0.293888 1.45647e-20)
(1.03023 -0.0533764 -4.17505e-20)
(1.10794 0.085915 5.04225e-21)
(1.14263 -0.0527224 0)
(1.0861 -0.0277068 0)
(0.490439 -0.0439907 0)
(1.10507 -0.0333302 -5.52289e-21)
(1.25242 -0.0486094 1.19666e-21)
(1.07482 0.113171 -2.74117e-20)
(0.842722 0.00185818 0)
(1.08843 0.0341519 -3.363e-21)
(1.04666 -0.199374 -8.68328e-22)
(1.16689 -0.109079 -3.21139e-22)
(0.97592 0.0325867 7.91141e-21)
(1.1233 0.0138373 2.35085e-22)
(0.100075 0.157387 0)
(1.09215 -0.0190363 -2.46064e-20)
(1.23535 0.140152 -2.28806e-21)
(0.702449 0.0223046 -7.20293e-21)
(1.27651 0.131818 -2.73409e-22)
(0.816384 -0.285418 3.36009e-21)
(1.04402 0.0166539 2.27213e-20)
(0.990108 0.0308956 0)
(1.03749 -0.00268957 2.27529e-20)
(0.835628 -0.187969 0)
(0.92615 0.0240947 1.513e-20)
(0.976771 0.301832 1.32829e-19)
(0.966389 0.0305998 0)
(0.822005 0.127865 0)
(-0.0649781 0.160209 -1.03069e-19)
(1.33127 0.0682404 -1.74228e-20)
(0.671292 -0.0211695 0)
(1.43149 -0.138936 0)
(1.15455 -0.0561616 0)
(1.32529 -0.00852704 1.74986e-20)
(-0.0237953 0.0400402 0)
(-0.0305894 0.230116 4.99543e-20)
(0.927483 -0.0628344 4.78259e-20)
(0.99379 0.0396442 2.70159e-21)
(0.848985 -0.00212639 0)
(1.01001 -0.0348925 1.52129e-20)
(0.879559 0.0280755 0)
(0.65745 -0.0259449 -5.17072e-20)
(0.99547 0.0311822 2.38822e-20)
(1.09405 -0.0916079 4.53174e-21)
(1.08762 0.0171543 1.21872e-20)
(1.01762 0.0740945 -1.0144e-20)
(0.610555 -0.298657 -3.34518e-21)
(1.12043 -0.33304 1.00868e-21)
(0.903961 -0.0289043 0)
(1.065 0.00231566 -1.94015e-20)
(0.870028 0.00908712 -9.80639e-21)
(1.36044 -0.171061 1.13553e-21)
(0.704011 0.0236744 0)
(1.02999 -0.13668 0)
(1.06504 -0.056192 3.8244e-21)
(1.422 0.16583 1.45908e-20)
(1.10321 0.0284438 9.95064e-21)
(1.0376 0.0238695 2.21412e-20)
(1.02993 -0.246391 -7.97682e-20)
(0.813184 0.00358311 1.79818e-20)
(1.11821 -0.0203544 7.53798e-21)
(1.3879 -0.112184 -2.83331e-21)
(1.0704 -0.0634947 -7.32898e-21)
(1.32594 -0.0465199 2.42783e-21)
(-0.087681 0.104586 7.66878e-20)
(1.27738 -0.0270808 0)
(0.606304 -0.0225468 0)
(1.06004 -0.0218426 -9.72943e-21)
(1.08844 0.0182691 1.59392e-20)
(0.332173 0.0300482 0)
(0.867687 -0.0118141 6.3268e-22)
(1.03249 -0.0337076 -5.70803e-21)
(1.0201 0.00901987 3.31243e-21)
(1.07737 0.0222679 -6.32493e-21)
(1.00094 0.0224987 2.63899e-21)
(0.997536 -0.0147667 5.03515e-21)
(1.04618 0.0265832 0)
(0.318358 -0.0149062 0)
(1.04892 -0.0623684 0)
(1.29066 0.0462227 -4.3482e-20)
(-0.0405032 0.0592026 4.53626e-20)
(1.13553 -0.0067358 -3.43759e-23)
(1.22375 0.266722 0)
(0.72819 0.0187912 -1.48599e-20)
(1.20822 -0.272258 1.29381e-21)
(0.000454269 -0.0363764 -1.25835e-19)
(0.73398 -0.048704 -2.7647e-20)
(0.615619 -0.0205262 0)
(1.11426 -0.284188 0)
(0.940811 0.0341421 1.47481e-20)
(0.995956 -0.0995501 4.52002e-21)
(1.3213 0.385856 1.24589e-20)
(1.1237 -0.241261 -7.94267e-23)
(1.02241 -0.0988372 -4.80046e-21)
(1.05059 -0.339346 0)
(1.4064 0.408232 -6.58052e-20)
(0.662158 -0.00286144 0)
(0.816701 -0.0248343 -6.47643e-21)
(1.05475 -0.0285191 2.94342e-22)
(0.594158 0.0156898 0)
(1.10041 -0.00653658 0)
(0.0927414 -0.160432 -3.2256e-20)
(0.936435 -0.0296014 -1.64815e-20)
(0.742128 -0.0223005 4.01781e-21)
(0.991011 -0.00471997 0)
(0.576461 -0.0185728 0)
(0.784508 -0.0170683 -6.51698e-21)
(0.539811 -0.0223777 -7.84073e-22)
(1.25243 -0.0611559 1.89405e-22)
(1.23413 0.202758 -3.052e-21)
(0.737041 0.0145299 -3.00304e-21)
(1.09246 -0.0527645 5.26608e-22)
(1.08446 -0.245722 7.48562e-23)
(0.56907 0.0118896 7.64043e-21)
(1.10799 -0.123288 2.95911e-22)
(1.04385 -0.0201184 0)
(0.960041 -0.386148 0)
(0.532503 0.0163855 0)
(1.03338 -0.00484564 0)
(1.26352 0.0410589 -3.56383e-21)
(0.971014 -0.095815 0)
(1.08713 -0.00533136 0)
(1.04131 -0.128683 0)
(0.933823 -0.29673 0)
(-0.00662487 0.0132877 3.95885e-20)
(1.29465 -0.062781 1.11811e-21)
(0.955191 -0.208213 0)
(1.39471 0.0468289 1.40628e-20)
(1.23137 -0.0825579 1.64578e-21)
(1.07584 0.0531013 6.1698e-21)
(1.1268 0.156135 6.8379e-21)
(1.19413 0.0120243 0)
(0.600119 -0.0111773 1.32632e-20)
(1.05464 0.0298728 9.86618e-21)
(1.00017 0.157743 0)
(1.23482 -0.131627 -1.54727e-21)
(1.14588 -0.125524 2.6401e-21)
(0.52208 0.33402 -5.32261e-21)
(1.16682 0.0590654 2.80002e-21)
(1.25704 -0.0219864 -2.23143e-21)
(0.843567 0.0559779 0)
(1.09409 -0.141714 -3.05987e-20)
(0.896943 -0.034761 -8.43604e-21)
(0.805544 -0.176358 -9.54334e-21)
(0.998616 0.340461 0)
(-0.00910556 -0.0153562 0)
(0.980154 0.121124 -1.63129e-20)
(1.24136 -0.0376243 0)
(1.12767 0.0193815 -1.89479e-20)
(1.06953 -0.011664 1.93733e-21)
(1.29862 -0.141686 2.14539e-21)
(1.04987 -0.01518 -2.08981e-21)
(1.34242 -0.103085 6.9762e-20)
(1.00394 -0.304976 6.64413e-20)
(1.12492 0.0529088 -1.35402e-21)
(1.09031 0.255534 0)
(0.880195 0.201181 0)
(0.908653 0.00486606 -3.94818e-20)
(1.09239 -0.0761699 8.97758e-21)
(1.26613 0.114527 0)
(0.625603 -0.445536 -4.81754e-21)
(0.512314 0.135139 0)
(0.804667 0.402906 2.55875e-21)
(0.781036 -0.284427 5.35497e-21)
(0.828215 0.0313446 -9.04693e-21)
(1.02364 0.120737 0)
(1.09126 0.0564611 -2.25977e-21)
(1.0551 0.191233 2.93495e-21)
(0.819737 0.187113 -6.03057e-21)
(1.13486 0.144469 -6.34342e-21)
(1.02112 0.190482 0)
(1.0904 0.0517526 0)
(0.945385 0.278384 7.72844e-21)
(0.834883 0.277765 -2.5847e-21)
(1.05532 -0.0765699 1.32999e-20)
(1.2103 0.00317994 -6.87809e-21)
(0.96371 0.286821 7.56112e-22)
(1.23279 -0.0338101 0)
(0.409474 -0.135268 1.1654e-20)
(1.29181 -0.0206876 -1.86789e-20)
(1.01704 0.04779 1.11998e-20)
(0.423731 0.450128 5.62641e-21)
(1.40518 -0.154554 1.4914e-20)
(1.00242 -0.291293 7.78879e-20)
(1.0787 0.291969 -7.93225e-21)
(1.14946 0.0305565 -1.31987e-21)
(-0.0888953 0.0510217 -7.71472e-21)
(1.00149 -0.00706415 0)
(1.03695 -0.0847574 -1.76067e-20)
(0.836099 -0.0259031 1.42709e-20)
(1.09965 -0.0536756 7.20807e-21)
(0.744057 -0.0430634 -1.31375e-21)
(0.518391 -0.00820273 8.06496e-22)
(1.39024 -0.375206 -1.47735e-20)
(1.18769 0.0416787 0)
(1.09006 0.0350268 -4.51205e-21)
(1.14915 0.0473799 -3.29149e-21)
(1.22379 0.0610334 0)
(0.821445 0.238384 1.20922e-20)
(1.15296 0.0132881 5.018e-21)
(0.76327 -0.21016 1.6938e-20)
(1.12025 -0.010239 -1.68575e-20)
(0.944402 0.307493 -4.9089e-21)
(-0.0453316 0.170001 0)
(0.681675 0.48174 1.43757e-20)
(1.20367 0.0634166 0)
(1.00236 0.254293 1.2682e-21)
(0.874018 0.290847 0)
(1.10147 -0.0145678 5.76283e-21)
(1.01315 0.0226225 0)
(1.07181 0.249457 0)
(1.38549 -0.13785 1.31637e-20)
(0.788893 -0.0649136 0)
(1.30466 -0.33219 -3.52831e-21)
(1.10611 -0.0442197 1.4764e-22)
(1.08718 0.0452553 3.95531e-21)
(1.12573 -0.0864788 1.02548e-20)
(1.24135 0.0745635 -1.15294e-20)
(1.08641 -0.125852 2.45005e-20)
(1.24758 0.032362 0)
(1.18962 -0.0145362 0)
(1.16572 0.00656714 2.47942e-21)
(1.1552 -0.0132606 0)
(1.52798 0.134475 -3.79348e-20)
(0.74784 -0.326104 -1.86827e-21)
(1.02649 0.00851422 1.84199e-20)
(1.27463 0.0734741 -9.61908e-23)
(-0.0190758 0.109871 0)
(-0.0100205 0.0380871 0)
(0.0226335 -0.118233 -3.08912e-20)
(-0.099004 0.00117223 0)
(0.81809 -0.366142 -8.26618e-21)
(1.16626 0.0238585 -4.63973e-21)
(1.20997 -0.0873764 -8.10424e-21)
(1.23804 0.120573 -3.1601e-22)
(1.12031 0.00282633 0)
(0.70443 -0.00408004 -3.32874e-21)
(1.17183 -0.0471279 0)
(1.2145 0.0114839 3.96267e-21)
(0.499729 -0.107173 0)
(0.925504 -0.283008 -2.60961e-24)
(1.08948 -0.0337044 0)
(1.10912 0.037466 0)
(0.882514 -0.0363383 5.65373e-20)
(0.867515 -0.2422 9.10059e-22)
(0.759135 -0.30728 -2.65446e-21)
(1.01092 0.0182925 -1.23666e-20)
(0.0935238 -0.0520562 0)
(1.20865 -0.240656 -6.5101e-21)
(1.15818 0.133218 1.37555e-21)
(1.12634 -0.242449 -6.26556e-21)
(0.959148 -0.165555 -1.38957e-20)
(-0.0650084 0.132658 -1.0325e-19)
(1.06027 0.0392215 0)
(-0.0374942 0.0623742 0)
(1.09366 0.0958326 1.41225e-20)
(0.698533 0.0827529 1.49569e-20)
(1.12364 0.0701355 -7.20996e-21)
(1.11432 -0.0341214 0)
(1.18918 -0.128176 6.78202e-21)
(0.950749 -0.0198769 -2.1718e-20)
(0.527895 -0.0351617 -7.48344e-21)
(1.11569 -0.0169205 -6.39275e-21)
(1.22245 -0.00975138 -5.93289e-22)
(0.181188 0.466333 1.9148e-21)
(1.3275 -0.0702173 -4.06092e-21)
(1.10436 0.0618101 0)
(1.08208 -0.0118406 0)
(1.15181 0.0296834 -4.91144e-21)
(1.1078 0.115725 -1.24325e-21)
(0.194996 0.0565694 7.93315e-21)
(1.18271 -0.117882 -2.93865e-20)
(1.06704 0.0542515 1.73978e-20)
(0.527052 -0.00284602 1.49908e-20)
(0.444986 -0.263522 -9.93698e-20)
(-0.0933937 -0.099011 -2.58469e-21)
(1.18964 0.164511 -7.1621e-21)
(1.21075 -0.475652 1.54747e-21)
(1.43628 0.107636 -1.29797e-20)
(1.15196 -0.0213099 5.8204e-21)
(0.927563 -0.210982 9.82664e-20)
(0.292683 -0.0415937 0)
(1.13873 -0.132401 -3.79907e-22)
(0.682362 0.337071 -3.43097e-20)
(1.0758 0.0655183 -1.22197e-20)
(0.99604 -0.00079259 8.27074e-21)
(1.10485 0.0360193 0)
(0.78268 0.180566 0)
(1.16461 -0.0421655 0)
(1.093 0.24804 2.39659e-21)
(1.27116 0.000654909 -1.14497e-20)
(1.13335 -0.00799482 9.70967e-21)
(0.494924 0.0174771 0)
(0.649347 0.0136318 0)
(0.643667 -0.0041584 4.09304e-22)
(0.464706 -0.0161418 0)
(1.06817 0.093408 0)
(1.01829 -0.0083283 3.28505e-20)
(0.450265 0.498916 0)
(0.916069 0.00825201 0)
(1.16587 -0.0686122 0)
(1.19005 0.163146 6.53271e-21)
(1.24821 0.0879567 5.36951e-21)
(0.951504 -0.0274772 8.69055e-21)
(1.27185 -0.39144 -8.99884e-20)
(0.434538 0.286071 -5.78824e-21)
(1.18997 -0.14125 9.74722e-21)
(1.25365 -0.170325 0)
(-0.0398709 -0.18318 0)
(-0.340649 -0.309795 0)
(1.11556 -0.0286762 1.16371e-20)
(1.29896 -0.279419 -3.15656e-21)
(1.26744 0.194325 0)
(1.11987 0.0108146 -1.33508e-20)
(0.222682 -0.24158 0)
(1.47867 -0.173042 4.66107e-20)
(0.430466 0.550829 8.3021e-20)
(0.25196 -0.00528929 0)
(1.08231 -0.271134 9.65786e-20)
(0.77538 -0.0484083 0)
(0.329477 0.359697 2.40615e-20)
(1.35833 0.176323 0)
(-0.0675449 -0.280269 -6.90132e-21)
(0.984656 -0.0516463 0)
(1.17019 0.069848 9.12347e-21)
(-0.170804 0.0421908 -7.77415e-21)
(1.10214 -0.0224899 4.46221e-21)
(1.2179 -0.314413 3.73983e-21)
(0.55606 -0.475158 -9.66487e-20)
(1.08853 -0.118306 -3.15661e-21)
(1.18506 -0.124445 1.03411e-20)
(1.20148 0.229263 -7.58423e-21)
(1.04087 0.149563 1.5659e-20)
(1.10706 -0.0179496 2.11601e-21)
(-0.119879 -0.507361 -4.16024e-20)
(0.245384 0.135755 -1.22985e-20)
(1.07831 -0.0588817 3.93105e-21)
(1.05961 -0.0427697 0)
(0.615874 -0.266264 -3.30553e-21)
(1.3776 -0.430156 6.11214e-20)
(0.900932 -0.0582801 -4.23818e-20)
(1.51653 0.025492 1.05666e-19)
(1.08149 -0.0701676 7.12394e-21)
(1.35824 -0.125537 1.06936e-21)
(1.06081 -0.0112816 0)
(1.17984 -0.00176414 0)
(1.20443 0.0734444 -5.35156e-21)
(1.08478 -0.024354 -4.28953e-21)
(1.0485 0.201831 -1.61756e-20)
(1.05514 0.0189744 -1.34136e-20)
(1.4434 -0.0406216 -3.17285e-20)
(0.621589 0.0163152 0)
(1.29051 -0.0142243 9.40046e-21)
(1.34397 0.190555 0)
(1.06973 0.0340887 -1.00766e-20)
(1.12742 0.00371909 0)
(1.04039 -0.00858685 1.87938e-20)
(1.20031 0.0066251 1.36242e-20)
(1.17624 -0.0760348 0)
(0.0573198 -0.0273191 1.34741e-19)
(0.880834 -0.188342 -7.70662e-20)
(1.30084 -0.0787701 -2.14372e-20)
(-0.153587 0.097884 5.10409e-20)
(1.18659 0.054152 1.06759e-22)
(0.906707 -0.0952376 1.42672e-20)
(-0.107436 0.177205 -5.31896e-20)
(-0.0383924 0.174565 -3.68312e-20)
(1.01569 -0.0287186 0)
(-0.0207285 -0.0119853 0)
(1.34365 0.112989 0)
(0.110095 -0.0708237 0)
(1.09607 -0.0210789 0)
(0.144107 0.0433547 0)
(1.08432 0.0650288 0)
(1.28361 0.310737 0)
(1.17755 0.137578 -7.03802e-21)
(0.564664 -0.277929 -1.742e-20)
(-0.153438 0.035802 0)
(1.09893 -0.0956833 4.40893e-20)
(1.06605 -0.222264 4.00213e-22)
(1.45247 0.0768117 0)
(-0.032528 -0.0333644 0)
(1.12787 -0.0137635 -5.14038e-22)
(1.12383 -0.0266659 6.09447e-22)
(1.2017 0.393461 0)
(0.166472 -0.0168016 4.2362e-20)
(1.11368 0.0355431 9.0232e-22)
(0.233832 -0.0501047 -4.57353e-20)
(-0.0618543 0.0598787 -4.647e-20)
(-0.0262483 0.0523193 1.16758e-19)
(0.962738 0.356999 4.07014e-20)
(1.18735 -0.243851 -1.34253e-20)
(1.08675 0.066802 -1.72025e-20)
(1.02044 -0.0104383 0)
(1.06804 -0.0641539 -2.67261e-20)
(1.20154 0.12568 -5.7708e-21)
(-0.00461146 0.0738169 1.11071e-19)
(0.970627 -0.0651813 -6.28804e-20)
(0.527497 0.0167567 5.33971e-21)
(0.907488 -0.209992 -7.58299e-21)
(0.0786501 -0.0277214 2.8377e-20)
(0.247943 -0.0357476 -4.12333e-20)
(0.355959 -0.0253362 -3.83846e-20)
(1.08483 0.157752 1.04815e-20)
(-0.0436896 -0.014226 0)
(0.754933 0.030836 1.39887e-20)
(1.29979 0.0456225 -1.47102e-20)
(1.11278 0.162577 1.41802e-20)
(1.31699 -0.0680395 0)
(1.48997 -0.225022 5.04186e-20)
(1.09955 0.0208144 -5.84634e-21)
(-1.73788e-05 0.0406776 -3.41633e-20)
(0.598309 0.00218182 0)
(0.935846 0.00885316 -4.73244e-21)
(1.12424 0.035717 2.83055e-21)
(0.591755 -0.204421 -9.58999e-21)
(1.12294 -0.0116705 -2.1929e-22)
(1.11132 0.0306012 0)
(1.12444 -0.166986 -1.23715e-20)
(-0.159305 0.00429901 -5.5575e-20)
(1.30282 -0.0296525 1.16144e-20)
(1.11563 0.165763 -9.38954e-21)
(1.08392 0.00207015 1.5341e-20)
(-0.0274757 0.00590849 1.30547e-20)
(-0.0360709 0.0906098 -9.43046e-20)
(0.730752 -0.085679 0)
(1.02154 0.23573 0)
(1.15136 0.0656848 -9.44785e-21)
(1.05374 0.0593843 1.00349e-20)
(1.16122 -0.0017156 0)
(0.418823 -0.169596 2.66446e-20)
(0.907689 0.058293 -1.66499e-20)
(1.10287 0.0876457 0)
(1.10054 -0.00382259 0)
(1.4722 0.273302 0)
(1.19865 0.124918 0)
(1.25272 -0.116401 -1.03824e-21)
(-0.0431132 0.0542899 5.07653e-20)
(1.105 0.124738 6.56446e-21)
(1.37571 -0.191208 -5.52649e-20)
(1.37881 0.000530253 -1.65089e-21)
(0.184294 -0.338596 0)
(1.22986 -0.0871388 0)
(0.653593 -0.0120654 -1.09025e-21)
(0.651078 0.00348906 -8.20755e-20)
(0.107407 0.0333283 6.53457e-20)
(0.992074 0.0310174 5.64705e-21)
(0.732108 -0.267071 0)
(0.670033 -0.0872481 0)
(1.34273 0.0624429 0)
(0.56755 0.544353 4.36495e-20)
(-0.0314867 0.111922 -4.2619e-20)
(0.948194 -0.232721 3.05824e-21)
(-0.00904595 0.0898205 6.13019e-20)
(1.0629 -0.00622685 5.32828e-21)
(1.19728 0.304389 1.44634e-20)
(1.1095 -0.0921427 1.25357e-20)
(0.393987 -0.440657 5.43985e-20)
(0.833005 -0.139157 6.43003e-21)
(1.3112 -0.255995 0)
(0.606778 0.291032 0)
(1.02656 0.0405547 -9.20601e-21)
(-0.231749 0.0331032 0)
(0.619874 0.0280863 4.38559e-21)
(0.588876 -0.403788 -2.12818e-21)
(0.290857 0.05149 -1.46815e-19)
(1.11169 -0.213915 4.45364e-20)
(1.06189 0.382069 8.64793e-21)
(0.980783 0.0320237 0)
(1.16066 -0.221474 3.10674e-22)
(0.678845 0.0125112 0)
(0.98888 -0.00542647 -5.06169e-22)
(0.43225 -0.0092544 0)
(0.716983 0.164301 0)
(0.98194 -0.0283178 -6.68442e-21)
(1.47811 0.0978801 -1.98953e-20)
(1.06401 0.0347688 6.45909e-21)
(0.507413 -0.472577 0)
(1.12461 -0.148969 5.71742e-21)
(0.821387 0.406204 6.34751e-20)
(-0.0261433 0.0175049 1.65245e-21)
(1.14823 -0.038998 4.43971e-21)
(1.17513 -0.00774609 -1.02589e-20)
(1.02617 0.0387233 1.63389e-21)
(0.796408 0.00902908 -5.6071e-21)
(0.0925013 0.017854 5.31256e-20)
(-0.0209819 0.144897 -6.38732e-20)
(-0.285188 -0.173568 0)
(-0.0891268 -0.0578712 0)
(1.16123 -0.596915 2.6116e-20)
(1.12114 -0.0230217 -2.06473e-21)
(0.870576 -0.453284 -3.23323e-20)
(0.885909 0.126855 -2.67045e-20)
(1.45137 0.143098 4.92686e-20)
(0.640806 0.447816 0)
(0.257087 0.445901 -1.01714e-19)
(0.614406 0.520176 0)
(0.399539 -0.0852636 0)
(1.10267 -0.457747 0)
(-0.0620403 0.213789 -1.10212e-21)
(1.18886 -0.0113704 0)
(1.06475 0.445699 -3.92439e-20)
(0.626205 0.733423 2.25342e-20)
(1.28955 0.356091 1.88721e-21)
(-0.0435616 0.0297467 -8.99434e-20)
(0.987292 0.435115 -4.21614e-21)
(0.510272 0.155717 -1.75741e-20)
(1.18954 0.0321047 0)
(1.42157 0.33003 5.67912e-20)
(1.26982 0.578852 2.30494e-20)
(0.237375 -0.0355512 -3.19882e-20)
(1.19111 0.0578431 4.81042e-20)
(0.932919 -0.00451148 1.33128e-21)
(0.964458 0.0302474 -1.42971e-21)
(0.00695006 0.00618366 0)
(0.626985 -0.612984 -3.38995e-20)
(0.619565 0.240102 0)
(-0.0308181 -0.0772337 0)
(-0.0581465 0.118569 0)
(-0.0519577 0.000220404 -3.27456e-20)
(1.18069 -0.0257908 -5.15591e-21)
(0.00927312 0.129063 0)
(-0.0513422 0.163529 0)
(1.41321 0.0345709 -9.83497e-20)
(-0.0281117 0.00132096 4.09959e-20)
(0.119824 0.261415 -9.5756e-20)
(0.494467 0.0108051 0)
(0.162586 -0.246195 8.42882e-20)
(1.07062 -0.233295 0)
(0.984167 -0.264826 0)
(-0.0297011 0.00852046 8.30246e-20)
(1.12428 0.00987826 -1.10171e-22)
(1.15173 0.346917 2.14604e-20)
(0.322218 0.0264448 6.21222e-20)
(0.389727 -0.491321 -4.66866e-20)
(1.46691 -0.0446217 0)
(1.35432 0.153184 3.09629e-20)
(1.31755 0.179158 -3.80027e-20)
(0.105335 0.121739 -2.29705e-20)
(-0.0661947 0.192544 0)
(1.06862 -0.0480315 -2.00451e-20)
(1.08599 -0.206257 -2.1856e-20)
(0.570816 -0.364082 0)
(1.0925 -0.144675 -2.99889e-20)
(0.103163 -0.121136 0)
(0.809355 0.0267181 0)
(1.47574 0.0377508 2.87803e-20)
(0.999429 0.00176536 8.64907e-22)
(1.12012 0.772225 -3.09419e-21)
(0.216125 -0.352541 1.43572e-19)
(1.07161 -0.0314921 -2.80978e-21)
(1.19255 0.0390732 1.81741e-21)
(-0.0646936 0.210304 4.4375e-20)
(0.829441 0.770184 1.3164e-20)
(1.32463 -0.357024 -1.28494e-20)
(0.0937027 -0.334364 6.88126e-20)
(1.15171 0.0512169 0)
(0.609346 -0.336963 -1.19209e-20)
(0.876316 -0.615748 1.91971e-21)
(0.953788 0.672913 -3.96226e-20)
(0.540518 -0.0306012 -5.26359e-20)
(1.1197 -0.0203722 -8.34201e-21)
(1.07504 -0.0821962 9.65265e-21)
(1.11225 0.0825667 6.22902e-21)
(1.10848 0.108915 1.14165e-21)
(1.12475 -0.123079 0)
(1.04027 0.0810926 2.10539e-20)
(0.951918 0.480764 0)
(1.23228 0.154398 -6.33334e-22)
(1.16275 0.0778408 -2.24199e-21)
(0.826541 0.275864 0)
(0.595341 0.11457 1.40039e-19)
(0.931014 0.746024 -2.92243e-22)
(1.09846 0.289252 -1.64811e-20)
(1.04254 -0.010096 1.62298e-20)
(0.429474 0.536116 0)
(1.27104 -0.455595 0)
(0.818163 -0.384846 3.55147e-21)
(1.33067 0.511349 0)
(0.00229615 0.0733636 -6.11731e-20)
(1.25913 -0.400312 1.06029e-20)
(1.20396 0.518296 0)
(0.45816 0.262452 1.63301e-19)
(1.20941 0.321889 -1.6031e-19)
(0.793964 -0.60211 -3.07801e-20)
(1.13117 0.0793679 1.6607e-21)
(1.02124 0.152113 1.12397e-19)
(1.10171 0.160314 3.91488e-20)
(1.12012 0.730954 -5.41305e-21)
(0.885951 -0.407372 7.25418e-20)
(1.45109 0.0820877 5.56481e-20)
(1.10948 -0.00898967 -1.15404e-21)
(0.000999679 0.0117982 7.49537e-20)
(1.0568 -0.677143 9.13011e-21)
(0.848057 -0.687363 6.6617e-20)
(0.242212 -0.27984 0)
(0.967144 -0.132635 7.83264e-20)
(0.372693 0.355101 -4.23939e-19)
(-0.229022 -0.138495 1.66646e-20)
(0.394416 0.0564166 3.39231e-20)
(0.668174 -0.0552836 -6.26646e-20)
(1.11746 0.549038 0)
(1.0025 0.229657 7.18271e-20)
(1.08382 0.0228668 2.90661e-21)
(0.942398 0.469063 -8.18355e-20)
(0.757824 -0.696056 -1.12791e-20)
(0.928946 0.0431562 -4.87818e-20)
(1.00531 0.511264 0)
(1.11974 0.336995 -1.18149e-20)
(1.35337 -0.498524 9.29256e-21)
(1.20752 -0.323697 7.62131e-21)
(-0.0599031 -0.442113 4.89428e-20)
(0.194215 0.0580787 -1.8014e-20)
(0.969751 -0.103529 -5.86452e-20)
(0.372275 0.568796 0)
(0.92554 0.0388013 3.88704e-20)
(1.21607 0.656841 1.12023e-19)
(-0.196632 -0.10558 1.15661e-19)
(-0.0645692 0.231095 -3.78684e-20)
(-0.0939648 0.0991184 4.3982e-20)
(1.08839 0.00445369 -3.80522e-21)
(1.1098 -0.448408 0)
(1.04066 -0.703252 -5.7885e-20)
(0.71518 0.384053 0)
(-0.0649455 -0.0813346 -7.03912e-20)
(1.115 -0.0227824 1.03596e-20)
(-0.025017 0.100977 -2.52387e-20)
(1.05216 0.0438496 -1.24043e-20)
(0.153382 0.0343995 7.92819e-20)
(0.975233 0.122444 0)
(1.39264 -0.071231 3.10152e-20)
(0.16556 0.0898079 -3.85056e-20)
(-0.265366 -0.262462 -5.80677e-20)
(-0.275544 -0.206376 0)
(0.0857725 0.0158055 0)
(1.35352 -0.0127793 -5.46368e-21)
(0.376677 -0.00709894 1.28476e-19)
(1.23798 -0.701541 -3.04222e-21)
(0.919135 -0.33295 4.45884e-22)
(1.09079 0.249953 -2.29266e-20)
(0.352569 -0.512595 1.48077e-19)
(1.61383 0.211032 -4.93216e-20)
(0.02747 0.0217917 2.79973e-20)
(0.215733 0.356056 1.88971e-19)
(0.0708643 0.0318069 -1.07549e-19)
(0.927912 -0.464855 -4.65772e-20)
(1.52416 0.366641 5.02862e-20)
(0.544915 -0.639934 5.49193e-20)
(1.10183 -0.072294 -9.15707e-21)
(0.151546 -0.0301031 3.63249e-20)
(1.29393 0.28521 -6.71926e-20)
(0.687115 0.679817 -3.47261e-20)
(1.30981 -0.605382 0)
(1.50346 0.51965 4.49692e-20)
(1.03126 -0.502953 -1.1312e-20)
(1.45692 0.615648 -1.45415e-19)
(1.17053 0.0673876 0)
(-0.0531075 0.168547 0)
(1.30509 0.750289 0)
(1.16324 0.144926 -7.58315e-21)
(0.725992 -0.268388 -2.1266e-19)
(0.476451 -0.0435979 0)
(-0.0433575 0.215357 -3.75603e-20)
(1.01005 -0.229284 1.11647e-19)
(-0.246182 -0.305658 0)
(0.324075 0.0725448 1.21735e-20)
(1.1252 0.0607183 0)
(1.51285 0.237766 0)
(1.17182 0.0757652 -1.77815e-21)
(0.353893 -0.24652 0)
(1.02267 0.151576 3.23858e-20)
(1.39375 0.262167 0)
(-0.0751376 0.204667 -2.27415e-21)
(0.802518 -0.36178 0)
(1.57177 0.289974 -7.43817e-20)
(1.27511 0.364674 -1.08755e-20)
(0.871357 0.679838 -8.4492e-21)
(1.02137 0.153595 -7.94849e-20)
(0.955529 -0.188019 -5.36062e-20)
(1.51955 0.253525 4.34705e-20)
(1.20326 -0.00364179 0)
(0.566454 -0.0353952 0)
)
;

boundaryField
{
    FrontBack
    {
        type            empty;
    }
    Top
    {
        type            noSlip;
    }
    In
    {
        type            fixedValue;
        value           uniform (1 0 0);
    }
    Bottom
    {
        type            noSlip;
    }
    Out
    {
        type            zeroGradient;
    }
    circle
    {
        type            noSlip;
    }
}


// ************************************************************************* //
