/*--------------------------------*- C++ -*----------------------------------*\
| =========                 |                                                 |
| \\      /  F ield         | OpenFOAM: The Open Source CFD Toolbox           |
|  \\    /   O peration     | Version:  2412                                  |
|   \\  /    A nd           | Website:  www.openfoam.com                      |
|    \\/     M anipulation  |                                                 |
\*---------------------------------------------------------------------------*/
FoamFile
{
    version     2.0;
    format      ascii;
    arch        "LSB;label=32;scalar=64";
    class       volScalarField;
    location    "1354.5";
    object      p;
}
// * * * * * * * * * * * * * * * * * * * * * * * * * * * * * * * * * * * * * //

dimensions      [0 2 -2 0 0 0 0];

internalField   nonuniform List<scalar> 
808
(
-0.03339819176400087
0.0437972213822071
-0.01104099798230705
0.03756775174616878
-0.29613929924458
-0.0557731890961797
-0.01570721665421687
-0.02414926581721975
-0.1948017498579979
-0.08290214298047668
-0.01079054435677945
-0.2516172254177562
-0.03071886204274103
-0.01413607483121935
-0.1220151373252862
-0.01425929913513212
-0.1382905753734719
-0.01377604309491631
-0.01267413803228263
-0.05481884518291487
-0.007954937826638914
0.1167084337740031
-0.06336781438096908
-0.0706769041394673
0.1745047308004394
-0.1005313350970852
-0.1507307501526851
-0.02047204215594155
-0.0175925306590114
-0.02554425329823275
-0.02039359674064957
-0.05757453319755746
-0.02271200614904034
-0.01692717186299126
-0.09860146909199294
0.3448167253913543
-0.03998672082365926
-0.01636006407728919
-0.02248000898475519
-0.02647030765855472
-0.08936534169958228
-0.1252299664005926
-0.05280153161540824
-0.02149469759837986
-0.05439969669777635
-0.04244089706377336
-0.01187543298256151
-0.1825235093097096
-0.02654736413712842
-0.2020413990128098
-0.01729031182479929
-0.06621889440911796
-0.0617401678214075
-0.0145687162609338
-0.1955776900032048
-0.02778234190789963
-0.01065726474240031
-0.01452311664916837
-0.09912101172944396
-0.03907962643061914
-0.1115567897088632
-0.1244298766084965
-0.01453304591030034
-0.1280223818121427
-0.01765175771794314
-0.05257854195188579
-0.1628027393982444
-0.03537143713515798
-0.01536307446156501
-0.4369894412336889
-0.02611623645083244
-0.2980129925068088
-0.02131924444626532
-0.02122031075893777
-0.06334468159328777
-0.01817505757950268
-0.04181258408150353
-0.3656972547214076
-0.03660101624471698
0.03895565873655857
-0.09217746846218404
-0.01675533964298095
0.05728019638347668
0.04582412284837586
-0.01752094568306627
-0.05146787784300971
-0.5375017473656138
-0.2287344035267241
-0.05131507278792988
-0.1135379755626238
-0.05567599668584911
-0.1312147308565746
0.038317335468707
-0.0265208442241362
-0.06284808298107526
-0.1202366600660676
-0.03820733501654652
-0.05202432755120011
-0.114934174255972
-0.1386922146149334
-0.05318375532588663
-0.04656549890368964
-0.05357222158554285
-0.04407823738940559
-0.05688947297687463
-0.07558288448009871
-0.03962559983700173
-0.01063589783830554
-0.03962032927932126
-0.1223618278788488
-0.0496739936712899
0.08129713380020048
-0.0417815819284754
-0.007618718226531021
-0.02751710439683216
0.1808821803818783
-0.03805725871277128
-0.265469272375728
-0.02083221674416147
-0.05269633655523245
-0.04281555248700495
-0.04962327533347256
0.01412741452414508
-0.04775194402551017
-0.03669653937430347
-0.2197909717450662
-0.04013751489341388
-0.004239173108909026
-0.07473200425228085
-0.06983552612577687
-0.1506586064850497
-0.02131800338743715
-0.07435180641370517
-0.04416893807044828
-0.02311600568269142
-0.01491694400028169
-0.005981770064120815
-0.007611048184409087
-0.05178706250264176
-0.04891466073400832
-0.2146712334301931
-0.05553992702838603
-0.008153987874323941
-0.0218103249218579
-0.1491865344464574
-0.002172260444175989
-0.07532965436701665
-0.02107638335639208
-3.406312743098135e-05
-0.01031288369354521
-0.03280569481284899
0.09320195859098736
-0.0379218628917184
0.2515232769754109
-0.2601020704628708
-0.1340073123049964
-0.03811162138642644
-0.09079987347140657
-0.009060111764976821
-0.114851535650169
-0.1675557787895186
-0.2151908068149727
-0.1782617400818588
0.05700325311695706
-0.06395227376245592
-0.02064223749240887
-0.066135304037403
-0.1714026559102072
-0.0229742546222203
-0.01875777559495215
-0.0510596850168091
-0.02077311909470288
-0.007555423089754917
-0.1062461195176612
-0.02366237297251526
-0.04418017250345215
-0.07114684130554529
-0.1595632043415696
-0.03300058657845589
-0.3840984277469821
-0.01792367761462327
-0.2278454499937982
-0.0434622124602808
0.0329627945738844
-0.1060887134318578
-0.01665327606732712
-0.0434235834077298
-0.1044616352463814
-0.01790183796678168
-0.09520187634865529
-0.2035662361425009
-0.07111567598258843
-0.02422622003980872
-0.04712146097305851
-0.04196436430672418
-0.2012310597888907
-0.02247669354091924
-0.01937279487492791
-0.01126350553547634
-0.05748614149725453
-0.04975529279329337
-0.02270820905768189
-0.02057541618846228
-0.2333192100019751
0.1268514950558503
-0.2074358156847019
-0.1893509667087601
-0.01171116255541913
-0.01126623347080077
-0.06645006401648887
-0.01027399496630341
-0.4919010704926767
-0.1269401610774751
-0.01970401994151212
-0.0007598378193345094
-0.02363878053805211
-0.2770538264390391
-0.2797744491443399
-0.007559677579542737
-0.01777942344025045
-0.001825516688450644
-0.350852913748079
-0.02862640922227515
-0.02943001700290999
-0.01269105267616463
-0.01941256254095034
0.04850234006920628
-0.1256513681640425
-0.01424281185704459
-0.02095435705331168
-0.04554321149350835
-0.01842240319676266
-0.01643992223731379
-0.02354405262844915
-0.0680510641744444
-0.01102105545717525
-0.01889762980622471
-0.008982335442906457
-0.001352858859407345
-0.02930628698189787
-0.002115667468381263
-0.001954857644183784
-0.005715527662672039
-0.02549044645042737
-0.008108836004722805
0.00162537639797888
-0.004134594501516007
0.001283873380907896
0.002317461932789472
-0.008849811580932633
-0.1291300117122902
-0.002916649676727708
-0.0001498856703468695
-0.04725857750755202
-0.02139108179904897
-0.02364829421562042
-0.01403438669151679
-0.006215437219660415
-0.02116991940642732
-0.040218516612368
-0.01517030853230482
-0.0126438856271335
-0.01154285583460027
0.00649082035766842
-0.009614385469560111
-0.0131764481595749
-0.01141460158072723
-0.01004931051469749
-0.01017953272388202
-0.01113140278737059
-0.01354881201042563
-0.2911339267032571
0.05882154292090729
-0.0152593229855522
-0.01540302630018455
-0.01237719787900031
-0.01232685265799336
-0.008237192556417994
-0.09920668407410359
0.01255554367174984
-0.01436977018506512
-0.01377939575610213
-0.01058286320988762
-0.05093325326612677
-0.008121907130344882
-0.01385069814532789
-0.009922108380016219
-0.002346657706687309
-0.01141573245260411
-0.01095054716252059
-0.02423313602901192
-0.01555372223342603
-0.01244148005068022
-0.01345686123473658
-0.009811268804546769
-0.01299763555473377
-0.0108799314469069
-0.05995218736721189
-0.01343753922367978
-0.01227746286442818
-0.009199341660228261
-0.01541361853330166
-0.0140342890237094
-0.01568045482097255
-1.366572867253041
-0.1006503884191213
-0.01181654304992398
0.02440396811244171
-0.1614938404839506
-0.09336543306318736
-0.01218468792248857
-0.01423271359350146
-0.2386696090366359
-0.02827423390371866
-0.01779316495265551
-0.01237833447829972
-0.02056440936770025
-0.01069498418231551
-0.0308035592665852
-0.4080085795319803
-0.01202283985975603
-0.014078654366855
-0.00441334428449706
-0.01081680401200901
-0.009574804871047324
-0.0138520798755524
-0.007913841792372107
-0.02742153563572292
-0.01176603358871502
-0.17148851662344
0.02032734957531348
-0.007343456946690368
0.003918212194431105
0.01182460584946218
-0.04909351968733169
0.02749208827819114
-0.01293221285697735
-0.1328680205906945
0.2828134962408566
-0.008230549780876723
-0.01354548063084322
-0.007930416919853526
-0.03327811563984408
-0.1259593425778179
-0.01315598782859432
-0.01193532476634731
-0.01767851277837981
-0.01351100521493888
-0.04172474639712043
-0.2203759856977511
-0.009266048175372766
-0.04379434873736561
-0.03830190299954601
-0.1799443423677376
-0.151086752138724
-0.1550228858880752
-0.2356888855192529
-0.002855578239989029
-0.02066521139494425
-0.01557372596059659
-0.01402781288049938
-0.0337956860521723
-0.0245154554942033
-0.0139512997881151
-0.01491697252108673
-1.069143275847742
-0.002936580723517488
-0.01337672739548432
-0.01798344465726844
-0.01992037264110257
0.005408525859050147
-0.01430097107614538
-0.02535048064671157
-0.1556319930914798
-0.01360032766893317
-0.02088421987629177
-0.01466498796143565
0.0009096143035229931
-0.1780077176362527
-0.01256928211134316
-0.1576695046626604
-0.01540248733392549
0.005916476341171276
-0.01392800237001639
-0.02431966056372387
-0.01644242047244366
0.007354362693210199
-0.2656431887219613
-0.02679669720488596
-0.01696938188618126
-0.01684200935237106
-0.01104975929314121
-0.02926362274383097
-0.01369673982253825
-0.02121914134272267
-0.02044067506809312
0.008458764082064333
-0.09754829317819523
-0.0211182721523003
0.009639071354387577
-0.05764936787987927
0.1801952394746002
-0.1066752381512144
-0.3164231361550083
-0.02934453364073644
-0.0259585890613888
0.15115072794691
0.09427148588340806
-0.003804521406681016
0.05375819754787498
-0.01513515314599503
-0.01322189124368919
0.002738630098781746
0.007756573909146284
-0.06475904821652111
-0.004367375220521206
-0.05585342941830305
-0.0233550718195277
-0.0156777813931173
-0.03650507476947877
-0.03293642334104627
-0.006699074635380291
-0.01452421854635826
-0.03669132634311339
0.03045498071495314
-0.03861761232142467
-0.01386938932352451
-0.1199034350649373
-0.03079408350675149
-0.04009745729182052
-0.6684289203761308
0.01344802313648906
-0.01065124513741616
-0.00566038183812824
0.1873670205340507
-0.1021575310910944
-0.03604715605597414
-0.2418390628994407
-0.01513057165168683
-0.01602561498808132
0.07802374946128608
-0.1804177903776006
-0.2307329242859444
-0.1853754212958382
-0.6759866879183102
0.01113982472062237
-0.01789219589008078
-0.01512499627413528
-0.09714442333280507
0.1186926406477202
-0.02197452753697972
-0.2410091792218859
-0.0363994751971217
-0.007027269548604607
0.2791654136952252
-0.0107722760458468
-0.09078783566518442
-0.1532570232823122
-0.004543727461066722
-0.04179062594480612
-0.04647096229716668
-0.1949959696260686
-0.007863089934949385
-0.03975788810261172
-0.003790404577344461
-0.5437394144483095
-0.193702645684464
-0.17905725791199
-0.02369847655790276
-0.00919292583375377
-0.06229528246920035
-0.05632448567896697
-0.01597282134433655
-0.06980896389790782
0.004670743274493011
-0.01752613798569328
-0.09497060805345889
-0.2775932635112962
-0.00993119265300142
-0.02472587489895559
-0.02123537770192617
-0.0766128188107978
-0.08884219857869909
-0.08999485046772469
-0.01124414522786523
-0.9071791736191814
0.1621603020452003
-0.08302553649507888
-0.2508523767642348
-0.04123809348078033
-0.009085448944390449
-0.2478272280783679
-0.1965894651066138
-0.03076956643685875
-0.1136310885928826
-0.01778755498523356
0.5628166645165488
-0.02530523876327897
-0.2126039229150367
-0.02496108346222415
-0.003730130646775217
-0.01083805570002
-1.245311834227033
-0.1813668884060481
-0.2267286413876679
0.005244416417727691
-0.03959266065062023
-0.2338637375263258
-0.06731127742168977
-0.05232244635256982
-0.1463426049227538
-0.1815897668023142
-0.07022117818822883
-1.214179855250271
-0.1609504605043978
-0.5426152143966348
0.07998569080019952
-0.006225529986419203
-0.02092067643741272
-0.04492149983147292
-0.03801043844100611
-0.02757177512311937
-0.129681993308016
0.08153282378760604
-0.004360719131958389
-0.009878453766163161
-0.561372781863463
-0.8483610907794605
-0.1749255137787455
-0.007529795294959386
-0.1222358511522653
0.0005599255926708654
-0.0005499913723521888
-0.002922320045218399
-0.06187609291345568
-0.2330483034607794
-0.01332509561364413
-0.1097683247539312
-0.1565438287843632
-0.01308843948940953
-0.03432634726668275
0.02910193090954948
-0.05900841357439517
-0.07232625282133852
-0.4920090201595503
-0.2278720839279292
-0.07965598867304363
-0.07582865121194426
-0.01924862407613973
-0.1102569385570777
-0.1666632861648052
-0.08253163193200713
0.02725933480401729
-0.08752866356601897
-0.05063913692540901
-0.01494456117118706
-0.1160967666915469
-0.2819477141074525
-0.05976650638183464
-0.01796464146850273
0.001701459108805109
-0.01023688078815015
-0.01048821091437971
-0.2379991953299349
-0.01395104936133766
-0.2164661043598217
-0.01081142277210995
-0.07215466676630308
-0.004064788067680855
-0.02326429728491231
-0.393308637389735
-0.9294215049774662
-0.01122700332792629
-1.040136560234261
-0.6006323598492299
-0.01060884378995415
-0.6601297197044771
-0.1874674559297881
-0.004878002728398224
-0.1230080098048282
-0.01711456182328984
-0.1257266550583982
-0.06473477430547339
-0.07801097018394526
-0.005611563887031704
-0.003623819579529481
-1.345431869104067
-0.01139502953407631
-0.1879869650580883
0.001066068784259985
-1.006570863463458
-1.249162855363322
-0.07817540483937863
0.01635451607974802
0.1646073463830179
-0.004913815394684444
-0.02294527116712853
-0.004369617711825407
-0.2380716801032977
0.3654619335611093
-0.0424342359171104
-0.2146596959431515
-0.0152984127622903
-0.652056107434437
-0.07203341115098162
0.188842747220716
-0.3045756495099123
-0.05103269854980049
-0.07058862632994038
-0.01579784011903053
-0.02136714706843192
-0.5948568076995734
-0.1543135436854067
-0.09595470270616792
-0.1177800325569833
-0.5502622358096412
-0.0456067761719087
-0.9019691373619486
-0.000719951345323778
-0.2446231970723322
-1.054239541787634
0.1664251599817957
0.2899316278809458
-0.1701926634041002
-0.1889714578516977
-0.2139789744491362
-0.06604840204663198
0.02571826048189203
0.04630297750582277
0.005047282585057266
-0.15216317466993
0.02611377051787222
-1.367272792255543
-0.08749802573172855
-0.4798816966673848
-0.3349347347817994
-0.2204536187995164
-0.1808355011456232
-0.01698355934724895
-0.01535274655406348
-0.09237373943652748
0.1734071387364003
0.3844996015933244
-0.2093660335528175
-0.1567100724204656
-0.2238078942918105
-0.06384803805857051
-0.1637548849472948
-0.1732493834338229
-0.1280191488957639
-0.1094931045888893
0.4649272144074668
-0.2838473790972118
0.4322150930410878
-0.5886967531204795
0.07312661452103605
-0.1883114041037288
-0.06816091936139225
-0.0778664450386293
-0.8946975634987273
-0.2179259588930378
-0.1930353553312578
-0.3556456793030933
-0.4671181906923563
0.5696664125187678
-0.2131813217081547
0.00277579011817877
-0.06736411280778186
0.3449665785071273
-0.03478027044340212
-0.1190076550911174
-0.182118352576618
-0.06472268789315021
-0.01631978593007073
-0.1988176294889897
0.195588225554482
-0.01258010779430233
-0.09906512173353622
-0.1765830713962747
-0.3182682576855719
-0.3076453929688776
-0.08378744922758528
-0.009620727280441582
-0.07900189282366714
-0.6504339920516976
-0.6742078931511234
-0.3243467258618714
-0.05945521047743263
-0.04937659613626208
-0.02431906387323977
-0.0704435042865839
-0.05480147178226209
-0.3690888974590478
-0.9634694807724891
-0.008600299786245881
-0.08565239543835186
-1.146443973287777
-1.043840271830422
-0.1084502812704801
-0.04183990877916913
-0.06771546203360101
0.3889581949366964
-0.3391827369033364
-0.05140235813297325
-0.6059494610174579
-0.1380920746524752
-0.2480931788972881
-0.2143122826519674
0.4733525903968989
-0.6375960733629573
0.07604543418494461
-0.02833042086633349
-0.5706418305598705
-0.05466716032291668
-0.3658032287485668
0.1094488472096052
-0.1940870122596529
-0.06173022497739016
-0.1247165911003469
-0.3578071124949224
-0.08477944803815798
0.5150100267562607
0.08709346001139746
0.4697492127857304
-0.1247965003089898
-0.2073581682022019
-0.5085789556649968
-0.1344974457436276
0.02409708499111886
-0.0558420572911142
0.09990615704512543
-0.3041344606247038
0.2364106596838627
0.005154784212302152
-0.002610068112423813
-0.5075340958039535
-0.1813517473495285
-0.100304039920343
0.5810925328406927
0.1396885374909184
0.3441408512304162
0.2250917360924778
-0.5671032587911632
-0.208644630905214
-0.2199473720525369
-0.228436937589051
-0.06252942481260591
-0.6871169412844489
-0.1901030058571153
0.3044797814307075
-0.2029644901162743
-0.01120117051747148
-0.1620697704053237
-0.01202839107355352
-0.1711454980765819
-0.4478349215813925
-0.07657614011851205
-0.2067619171383768
-0.07754231200742434
-0.1104435694580766
-0.1313342915266165
-0.07257064607962921
-0.4396735879790628
-0.4102368613600407
-0.02391998101742148
-0.07784011927466876
0.3287249802438205
-0.2528101310088151
-0.1711361583014285
0.524387549073601
-0.1931245081955145
0.02087402520019715
-0.4561404578602142
0.04917635726102246
-0.059378201352902
-0.1549261367387364
-0.5930553060788022
0.1590895179445904
-0.5746857006114974
-0.5416809194850126
-0.1021654652794332
-0.5133508808882949
-0.03596698162474985
-0.1565789584838908
-0.4148459492106016
-0.01606896734881044
0.2879449963647821
0.4897504473443648
-0.1679449100324502
-0.005487839549239685
-0.08151352359809574
0.5250156095930395
-0.03201377761558916
-0.4467156073091461
-0.03156361785463957
0.4613496795299616
-0.01758210762334989
-0.5514318639837674
-0.2398825573753428
0.1778768860439702
-0.3161684894425683
-0.1828014146360087
0.04841546966147328
0.03109356093684398
0.05658864739181337
-0.3052992604614164
-0.1592319099532697
0.4127811646955821
)
;

boundaryField
{
    FrontBack
    {
        type            empty;
    }
    Top
    {
        type            zeroGradient;
    }
    In
    {
        type            zeroGradient;
    }
    Bottom
    {
        type            zeroGradient;
    }
    Out
    {
        type            fixedValue;
        value           uniform 0;
    }
    circle
    {
        type            zeroGradient;
    }
}


// ************************************************************************* //
