/*--------------------------------*- C++ -*----------------------------------*\
| =========                 |                                                 |
| \\      /  F ield         | OpenFOAM: The Open Source CFD Toolbox           |
|  \\    /   O peration     | Version:  2412                                  |
|   \\  /    A nd           | Website:  www.openfoam.com                      |
|    \\/     M anipulation  |                                                 |
\*---------------------------------------------------------------------------*/
FoamFile
{
    version     2.0;
    format      ascii;
    arch        "LSB;label=32;scalar=64";
    class       surfaceScalarField;
    location    "1354.5";
    object      phi;
}
// * * * * * * * * * * * * * * * * * * * * * * * * * * * * * * * * * * * * * //

dimensions      [0 3 -1 0 0 0 0];

oriented        oriented;

internalField   nonuniform List<scalar> 
1171
(
-0.9279194721259792
0.9279194720699085
0.7874444956554355
-1.099251522868044
0.3118070273207141
-0.189839993338007
-0.7652237037330158
0.9550636971394127
0.07208052182290314
-0.1170537516920935
-0.2123919031889256
0.3294456545723288
-0.7874444928470274
0.06946413389927712
0.7179803589623213
0.8116187771422341
-0.1779893108617164
-0.6336294662994766
0.8741801544714708
-1.04422757777979
0.1700474233542601
-0.2854786704590457
-0.09762121520616793
0.3830998860571133
-0.03632328745206899
0.5489961629696944
-0.5126728756059994
-0.5048619202117702
0.8251550135285779
-0.3202930934061276
-0.4025324171367382
1.045925675528535
-0.1717455221542356
0.3922411919162956
0.04933943742139723
-0.4415806301543324
1.045939098389113
-1.342320284500662e-05
0.4434149728362772
-0.05117378176984545
1.056540379776211
-0.01060128783477576
0.5797204413709586
-0.7695604274910541
-0.724205178373702
0.5566559190332091
0.1675492592726079
0.2160287070855728
-0.7208906331301251
0.5502659814056907
-0.9227308080516166
0.3724648258500506
-1.094197905475365
0.6865572073634222
0.4076406982496252
-0.5955896665644855
0.5592663849239432
0.01760062464148306
-0.2562592385540408
0.238658612670878
-0.02283894034685403
-0.5223782174380524
0.5452171582075301
0.4004439411820862
-0.498065149076394
-0.9189478006181336
0.9416006340494577
-0.0226528334356938
1.067608267735826
-0.0110678911422935
0.934849277640836
-1.116653214050834
0.1818039363545889
1.067056292040623
0.0005519688418004913
-0.6644483111321156
-0.0597568703357459
1.262311527057445
-0.8642586122364699
-0.3980529148131086
0.1481084845422835
-0.1097234175307289
-0.3260741624571867
0.4357975803012631
-0.2855608677738836
0.1915995832131185
0.09396128511029449
-0.5836811249501994
-0.5155703977147456
1.014039697885886
-0.07919042177514402
0.009900570089943942
0.8254860077453267
-0.8353865778147836
0.5717955999397279
0.6905159281046198
0.4392727493996897
-0.0306051635545684
0.4310491049700606
-0.8079951747904147
-0.1025083003116598
0.9105034750414465
0.5020810669541366
0.2538599078759006
-0.7559409748665363
0.006997815503244464
0.527850858285113
-0.5348486740589786
-0.4899606435638754
-0.6042372676449085
-0.4227594473133786
-0.6938937672656545
-0.02708888488112136
0.2704154486102277
-0.243326562935554
-0.9247098837885918
-0.005069692657301388
0.9297795764804178
0.3087354153252435
0.0743644808988342
0.7617300561111396
0.0498887203337844
-0.5330714492177598
-0.06251821417028154
0.04602756512969915
-0.8540227422879486
0.07530280197698308
0.8634570101620523
-0.9387598121434843
-0.3468440591895159
-0.04121769006362172
0.3880617491860695
-0.6820333420682182
-0.2426765412869569
-0.6339843395670479
0.709287138549865
0.6138430753121596
0.2113119329091694
-0.543278032068957
0.9456438097366622
-0.7790027612621577
-0.1666410484677623
0.01277139832758204
-0.01187128869411787
-0.0009001107813694437
-0.4034195902865353
-0.09464555816802565
-0.2408319306254389
0.8546749993742504
0.04754258641994832
0.3350380625343241
-0.3825806485501355
-0.4609849209788615
0.9630659871649558
0.6804230991679406
-0.7829314044792169
0.3203474631362175
-0.01688094833705258
-0.3034665156891322
0.930735922394494
-0.9307359223816857
-0.7812780232810654
0.1107164470722158
-0.323108345301776
-0.7499398842308532
0.7598404533022328
-0.09020234917182832
-0.1434306440420612
0.2336329936739984
0.8649466910677862
-0.03946068379052786
1.054314757728176
-0.80045485302293
0.1865164125282293
-0.3160284008410374
0.1295119882664119
0.8587797184712341
-0.09704966118372785
-0.6115226556490497
-0.03899621050866477
0.6505188661715243
0.1235153435512794
-0.2306934177617193
0.1071780730566817
0.8056329727753354
-0.9836222829484963
-0.4347608073394794
0.3293611497349844
0.1053996572690313
0.5325638458964221
-0.5554027903878148
1.021910347453725
-0.4561884530265495
-0.5657218944408029
0.5991508960208939
-0.7193658554731136
0.06672061042927774
0.6526452454441465
0.1028387429833326
0.5696862834908829
0.05538716455294945
-0.625073448168215
0.1943840691863494
-0.08366761672659091
-0.4925211441946278
0.145677082830092
0.05023817242671893
-0.8865089509314523
0.836270778454232
-0.4730387770031789
-0.7132942017715213
0.04884589289770128
0.4372845320138512
-0.006235423357790618
0.2999278148293626
-0.8552523191597048
0.5553245040968049
0.4157453719170378
0.5842546280448312
0.5604725543729373
-0.5144449971530796
-0.367890051820814
0.03794107213189278
0.3299489818840116
0.6813103516988351
0.2494255703443655
-0.5661523571323059
0.5731501740358274
0.1112103657986512
0.875097105806698
0.01016595861867818
-0.6216886158919903
-0.7491163453735853
0.7993545154121943
0.5306900723341675
0.06982612700819518
0.3019279583451169
-0.3717540854904876
-0.1674655420141437
0.4438531553121216
0.08399770743238547
0.8755252709467685
-0.8039950290408384
-0.07153024200412586
0.6352871433250694
0.3103566637652157
-0.4305084768024354
0.5738427938357049
-0.5040166696998727
0.4171601889378345
0.1331057822972796
-0.04674620180661412
-0.5940626570193941
-0.1379883822008659
0.7320510392548133
-0.1497810880931083
-0.7809548319333938
-0.610987160630769
0.3604605452871616
0.2505266163946042
0.6219593594074765
-0.6117934029932059
0.2392433053518527
1.01132531937167
0.04298943940648883
-0.749116347204004
0.2342363910043283
-0.2214649845335727
0.6804231010512521
0.8017557822378675
-0.8017557821986695
0.8376630638469434
-0.8331441143657669
-0.004518949561971565
-0.4453657573488699
0.8611111278575712
-0.1473073063906855
-0.3452138354785976
0.7347283402802023
-0.6685145561755373
-0.0662137840312756
-0.7348361510589411
0.1407734941881986
0.1389259156561299
-0.6719973643601108
0.7829314227920073
-0.9503969647439446
-0.368648923916158
0.2907491548426568
0.07789976960552304
0.1458421430713813
-1.010003283282993
0.8641611401837077
0.4812580786426026
-0.04198532916671899
-0.3081191421056487
0.5863780452527382
-0.2782589032532082
-0.7385623963164377
0.8844045423873522
-0.1570434062752107
0.7312793779006517
-0.8431830274662947
0.1119036494187925
0.9760726519653259
-0.5396887227775518
-0.4363839291539381
0.7550095775140102
-0.06503269626137136
-0.03217850489055761
0.1850690730869372
-0.1528905674627213
-0.7758124181914346
-0.8416546778273893
0.07643098152702141
-0.7499398854350133
0.5136473021482975
-0.5548649904053784
0.09871766755200342
0.7185415547999091
-0.8172592224867453
0.7536353119949933
0.1742841409685739
0.5029194579467443
0.4970805420752237
-0.05100406366776286
-0.6123155003839365
0.6633195639082869
0.8839249247130015
-0.008399657125352891
-0.7550095775274136
0.7993545148113803
0.1914101195642994
-0.4476693619435476
0.01564187066169571
0.003601841041498258
-0.0192437152473752
0.588521801489841
-0.4376749234448852
-0.1508468783868742
0.7179803570832186
0.01036847809625498
-0.1103752992357484
0.4376648451285898
0.1508569526227023
-0.01645518317676825
-0.006116338921082961
0.02257152223200256
-0.03100788351551926
-0.001170615000030598
0.2449701045549274
-0.2618510684690872
-0.9587991903201089
0.00132204206319528
-0.1594446754972263
-0.123678823039932
0.09439299716247349
0.7222340521060258
0.7290023126701776
-0.1447476830152039
0.6734932526891027
-0.5747755828357964
-0.2117661778147293
0.3982825886664002
0.6955729513333091
0.02240740576442159
0.2417865042504992
-1.074930622423838
-0.9503969625669636
0.3024999841069989
0.7598404529715794
-0.2090561634212872
0.06562551483431391
-0.7235560937898786
0.9111348490736912
-0.1875787553276642
0.4155417260546261
-0.02747997185013859
0.7712380793291648
0.2806341385243509
0.37489057760655
0.06852440581862675
-0.6587013789437364
0.658701378965171
0.2146295579176798
0.6958739125034081
-0.05612656783728406
0.3911646304020395
0.3796710078027867
-0.01551342217964318
0.03115529929634162
0.4486295015002501
0.0326285793756483
-0.7385623950966075
0.534025921546448
0.2007024142686081
0.302064314716855
-0.1169952512875985
-0.6955729526040619
0.1800664376046601
0.731068412763943
-0.01015195236598366
-0.8136865559452785
0.8238385083348977
0.6963628898109115
-0.7920336696904827
0.09567077985849903
-0.7536353035560245
-0.1498939838329204
0.2113676365227901
-0.06147365179363274
0.07726918973381267
-0.1791955547234021
-0.1119505139437701
0.2911460680763136
-0.009488716937020067
-0.006966463014604658
0.7062804571327203
-0.7164324020302459
0.8862743626076427
0.06878934114523223
-0.3098200421491734
-0.5231526883797024
0.8329727307584675
0.1028127148213231
-0.1028127167629647
0.3286902177092479
0.4787786265859131
0.6080684092706753
-1.086847035986131
-0.1941185515581867
-0.585542200024342
0.7796607515726302
0.01228239229065363
0.2213505920076635
0.3766042304935059
-0.25308890085603
1.014913078942906
-0.5361344559558356
0.6670962456874958
0.9923639030788588
-0.3842954969954374
0.2292969289496325
0.8844045455325726
0.7126590205880603
0.2138134173377054
0.7277872119800231
-0.7809548320283208
0.341298604160636
-0.2840891214989008
0.258029648908393
0.02605947297268584
0.8519807399878484
-0.01014449143834907
-0.8418362487487528
-0.7020577258888338
0.7026096915059661
0.5546342397791588
-0.7020577287996451
-0.7126590205904506
0.7026096880364903
-0.03358851897799921
0.905852340354258
-0.01957797370059436
-0.6813103610892243
0.6122485531241897
0.06906180796364104
0.538733955124851
0.5385364675879867
-1.077270422711184
0.4887384925205757
0.5261745854725173
0.547815556307466
0.4583098511879574
-1.006125407552726
0.4950023487594855
0.4973615531991493
0.6122485598454265
-0.5257025168022157
-0.4665312510199301
-0.5557934486488532
-0.5153444335151189
-0.1246414676016724
-0.01275536174264668
0.01275536269022997
0.5095414023881035
0.5243101324334075
-1.039654566079955
0.5730720480637096
-0.2711440890916139
-0.8831763502905101
0.3434876279238914
-0.6326846534966823
0.3900081118359154
-0.0002024166311827958
-0.8279974564114869
0.828199873053859
0.4208831758128129
-0.02404710163411965
0.8760278443568011
-0.943804386387304
-0.834715314010871
0.05734456257140227
0.77737075149182
0.5509695484516834
-0.4366226102135483
-0.1143469381302614
0.6500901901590934
-0.7292806119781563
0.8847674329610383
-0.8277857214684238
-0.05698171129820939
-0.0134806188891598
-0.7905144131370707
-0.1111012625418625
0.7153025557836444
-0.6042012932403346
-0.9409447810073588
0.9274641618164307
-0.7357004802588374
0.6885076663180454
0.04719281395710219
-0.8005619192808145
0.02793388472760269
0.7726280346497658
0.06180667206604036
0.04100604516002558
0.4330335970316527
0.05903697105526837
-0.8496883099281347
0.790651338741682
-0.6449042377449621
0.5939001671729639
0.8898409426334796
0.07292045838832559
-0.962761401125351
0.05512562987088571
-0.05007410937990318
0.3800230812964427
-0.3816356085012425
0.06560720228992319
0.8407085127323878
-0.8409109341074441
-0.7317725715480583
-0.8104560580248089
0.01994164420602496
-0.1684623469439057
-0.8478468770915217
0.02006114778127543
0.6237968283336031
0.04969642629902517
0.01716199305804059
0.5338075420245693
-0.814774371776441
0.8427082606154417
0.5657218974756604
-0.8520445652635261
-0.8680243221138911
0.03782802096145464
-0.03316608154766453
0.8342553428585474
-0.8010892612849326
-0.01964701553429654
-0.764938648776942
0.544294458138363
0.1520684328508763
-0.0194809747988663
0.8955088182916511
0.9848087247923237
0.860756219353725
-0.8406950760450167
0.1475893046615823
-0.1475893064834523
-0.1177379481608106
-0.4661750607954829
0.02955244417239973
0.2713702892301704
0.03112969520746964
0.3852590441658614
0.8758618054958373
0.006268105317959234
-0.01575680883951394
0.6586019970966458
0.3413980029253401
0.7835536040177641
-0.5836811258178483
-0.7780474426971287
-0.8112337453133558
-0.6799568485620359
0.6799568485600147
-0.168141368231538
-0.1549669712694076
0.601798658714331
-0.8113288680311654
0.2095302093384622
-0.4939746399801639
-0.5688562867714004
0.2780635898650936
-0.9719573581639218
-0.8988344569174206
0.8418527349895858
-0.819735606474661
0.8396772514719548
0.6484850655406035
0.1344939319618375
-0.7829789975143544
-0.7640409312875138
-0.1463113870339128
0.7253507992011617
-0.5790394121672142
0.02297265446902136
-0.01292804180622672
0.0160819900946133
-0.00315394721405889
-0.3527986292450627
-0.1133764294139227
0.87986224962961
0.7385620248694933
-0.2385539170608609
-0.5000081081178142
0.6242150882761075
0.6856424839632654
-0.4710129275676104
-0.0003048846335848088
-0.2852559878857682
0.01442057680358551
0.746861814755142
-0.761282391415015
-0.3234722923000129
-0.0717540640835775
0.07597237446995074
-0.9665796724345749
0.1247434276391081
-0.6768349343407227
0.05420772425506643
0.6402313405636425
-0.6944390647961117
-0.7565793620454131
0.07974442769218094
0.5894834017304831
-0.6612374657279384
0.1562598569924427
-0.3354554155612777
-0.7724468656364715
0.008405934335337
0.3711504883213073
0.6001472157872532
-0.02630441914535813
0.02181169130369177
-0.0218116928218649
-0.0188716920144143
-0.05252998651481092
-0.2315591195413979
0.02118263812591629
-0.01491455961545658
-0.7227504426713326
0.2794044854264443
0.6784392805815183
-0.6901200572260587
0.01168077682721668
-0.5967963714202196
0.6510040940084851
0.6544377288493013
-0.06495432829382457
-0.6310655433563223
-0.1255138209757412
-1.049768087157463
0.01123368971736138
0.1363556192117084
-0.7083298673271821
-0.7421668096014786
-0.7639475155393662
0.365894601448604
-0.4069045586056249
0.4675014428288382
-0.060596884077793
-0.6737188056640632
-0.03461106155745349
0.4996294266459831
0.7306825244418543
-0.2347697437128178
0.1110909222211722
0.9581737408436434
0.4461743944239963
0.1324225738544791
-0.578596968334312
-0.6774819692027155
0.003763165848339854
-0.04449592806053525
0.03156786179394904
0.637575420959732
-0.7755638051136372
-0.002777440687984253
0.002777440237118513
-0.6000258134070661
0.6495730024574237
-0.04954718902902099
-0.6603199763723714
-0.1138573212342909
-0.671815258763065
0.05376724813163498
0.6095523105712408
-0.1376116079244961
-0.8181266443154869
-0.5651549795489917
0.5720877205230759
-0.006932740256714461
0.6312267783127449
-0.6195460020469751
0.3223279911441281
0.213674766302277
-0.5360027574567841
-0.1045913896297891
-0.6027177305078675
-0.09172133326927832
-0.1538514181832909
-0.5113877428372258
0.4043521138704648
-0.4989976741549403
0.1259907996127323
0.6787474164788665
-0.8047382160889225
0.5991508960146614
-0.3746509235731934
-0.03225364553371118
0.05989965373083569
-0.5712873980225609
0.5514554763979278
-0.0403342097064649
-0.5111212668866435
-0.312747467432312
0.3053927332729752
0.007354735367627574
0.4507798234439099
0.1222922210584022
0.05172000021663966
-0.31621830386811
0.1572118123136288
0.1590064917820776
0.2532695889043397
-0.01903320799254919
-0.2968382707146592
-0.31316924714712
0.3597313631839336
-0.04656211282251011
0.7918396712526223
-0.6291770958409065
-0.03114288066727578
0.4995095168540856
0.2851348323028733
-0.5236887533652189
0.5774419638273758
-0.5774419638258076
-0.2897888264938867
-0.5865178525711974
-0.2955236878351276
-0.5865178527884952
-0.5968667969658118
-0.8384785151612334
0.1699639545623839
-0.5996246464468925
0.8212211746791395
-0.003409518454688299
0.1189041855813093
0.48124303103274
0.09674197538558574
0.1855838621344944
-0.03618559310378008
-0.1493982681089022
-0.0275369355492275
0.5906610870327934
-0.9426403927496234
0.4194876999894155
-0.004310998011261141
8.194552636307871e-05
0.004229052730943786
-0.643993739063654
-0.1321169711156314
-0.4659881939627948
0.5984107688699872
-0.5035745133084679
-0.3151915943811247
-0.2560957892953386
-0.2723368234652504
-0.1116402134793036
0.1116402141999341
0.1535637060402404
0.05780393330416016
0.1968175555322808
0.4484682311385109
-0.5696840047837588
0.1036958055090064
0.2537186405559629
0.4662820198783633
0.5337179808009428
0.6456201641220077
0.08134202424227878
0.002977538372964696
-0.08431956272931684
-0.2770454892700546
-0.5410811550564085
-0.5452536914968914
0.1146099089737169
-0.1264814317507803
0.0118715232603305
-0.1058055979328814
-0.385548048474659
-0.04882378708339107
0.6583761141954672
-0.4994324094055241
-0.1445613296322022
-0.3270628739962433
0.2865508971076587
0.1278497401611812
-0.6093866415512535
-0.2043269744881108
-0.2626215658444414
0.0007705160673045785
-0.4209547016170624
0.32218182604472
0.09877287578158725
-0.08966386121233652
0.2916955605535962
-0.8959328307800737
-0.4575241892219885
0.6308391743489112
-0.7731404116094936
0.668549022028361
0.3410905144531236
-0.1257899433027404
0.2247950948849758
-0.09900515232152717
0.03145808722552748
-0.5861763814278625
0.02886222293574699
0.5573141582459319
-0.9006464837834739
0.5474845913483094
-0.6652225395377448
-0.1007876621957052
0.1091589683570971
-0.1091589710346251
-0.3165231939357175
0.3601218694399212
0.01990120641816578
0.02108926356978337
0.06025273528148824
0.5043856539398628
0.6673593424792761
-0.7388895868708812
0.02469109930899503
0.02020817495555097
0.001603504578857861
-0.006326217848403921
0.006326218734773366
-0.4100169131847465
0.5323091303591356
0.01559472699841058
-0.01559472688369292
-0.7926158882384917
-0.0600346360732428
0.121841300540055
-0.4509996703028104
0.5546954716162091
0.4497013293299633
-0.4992485180510186
0.1500453839555868
-0.1500453854256584
0.04388132089865103
-0.0127260109643391
-0.04127095684927157
-0.9764090670106929
0.5400251390142982
-0.4706138052513072
0.04100604348170612
0.5150463622926308
0.03051957481225955
-0.5455659373051346
-0.6162542186880059
0.1168218096456428
-0.3293830966114807
0.01359064584374257
0.3157924498362196
-0.1543342212276626
-0.0804355387154964
-0.5409122513009681
-0.04526412704500362
0.1363556198872619
-0.04129593191639862
0.0385184880740664
0.08160920061439693
-0.08160919774163677
-0.5297776911635694
0.4832155690119154
-0.4147301078054007
0.161303031331972
0.6222505727277702
-0.09735394068763244
-0.005729694158610653
0.00572969420158596
0.5330026129383628
-0.07557909486950015
0.006346250266536563
0.02719665076737521
0.03467983864790417
0.6894094903783787
-0.7649885853358332
-0.662297260496878
0.6311543802419203
-0.1104919188989783
0.3136077801929528
0.745641559382361
-0.01887169077336662
-0.2655813836789825
0.1485861455237997
-0.7446247354804441
0.483877812479568
-0.424558137635752
-0.1012078546649938
0.003382207511125867
-0.01467209025355293
0.02416019930967886
0.4122995896743645
-0.1216335882102715
-0.3894876797768085
0.6290883365567167
0.01908155081944153
0.009132129738533284
-0.009132129929616001
-0.3547497029376393
-0.08130946025092393
-0.5604152484831891
0.5570057298800086
-0.2377404587593935
0.4647444634727668
-0.1505816431968561
0.7303020876841435
0.6704055117530423
-0.0412959316814854
-0.6164447689142714
0.5600302127385518
0.2823642652277106
-0.2785036639963445
-0.003860600189501427
0.5414905208975019
0.09343899334552168
-0.03874989670217515
0.1966659971477079
-0.157916099996297
0.1203590947959855
-0.1203590920875531
-0.8586451120646796
0.002456075181544573
-0.1131499343034885
0.1403465838608048
-0.1316797720590221
0.131679773093876
0.02020817836553076
-0.02460139711002283
0.6708635175162015
0.06020489573943598
-0.322844494087425
-0.06270355417170406
-0.4712949468974741
-0.04469860980798633
-0.1514875766435666
0.1514875781439152
-0.04043824334930151
0.1435076812660717
-0.1435076825608868
0.136608970419614
-0.1366089683493934
-0.3160172439659448
-0.1144912327937333
0.2262163856298891
0.1031447635587739
0.03480659750524381
-0.8212262045521842
-0.1976462516876345
0.1700522258632419
0.02135788624027298
-0.2646948367865262
0.1260537785088352
-0.1260537796453135
-0.4142558301088022
-0.08474184116063116
0.2360206425462218
0.002637965116912137
0.04031327203570854
-0.544415653034614
0.5780041720349032
-0.02821613696979582
-0.01222210542953864
-0.02539785208551436
0.0126718266631439
0.006537685605746753
-0.1845420392502537
0.1780043536164425
-0.1077115776866575
-0.227743839364113
-0.1445517244283737
0.1445517257659346
0.07256415407364514
-0.07256415341617711
-0.01911046326703728
-0.1086175143578471
0.127727976849634
0.2353771250058917
-0.1832354817469689
-0.02153713369083897
0.02314063153812723
-0.1301689733602659
0.613384545000791
-0.03907606346530922
0.4245265023596615
-0.04123052333966399
0.06380202922431319
-0.1533047828246256
0.1533047846413283
-0.6363603128590608
0.3084082038334018
-0.07911127569485613
-0.2343514957141051
0.003658073175551016
-0.1222217456307457
0.1625350185350734
0.1942216163227272
0.09692444539921755
0.09504748285802732
-0.06036764417464908
0.07299062843815771
0.04161928063569273
0.06407267756164843
0.1059795512722354
-0.09915437876203935
0.210245323623612
0.01190957501584439
-0.1140689349873891
-0.1020483496827494
0.09675240927632138
0.005295939070189498
0.01107604646924354
-0.02214897641256798
0.03747578933822791
-0.03747578923174683
0.07444425073985694
-0.05517763059677978
0.05517763091611667
-0.2244237971137676
-0.05026690634170337
0.011748227448081
-0.1031667076145622
0.01624987431813982
0.1086684262508388
-0.1086684269807853
0.2929944881410602
-0.2710077885384251
0.1632962052723261
-0.05045619130167341
-0.2205515980942149
-0.01702972498968713
0.01702972457651101
0.3674440385517128
0.285201195998774
-0.5277834232502194
-0.09394183055116724
-0.03253959912287985
0.5287470629613015
0.2099792589685888
-0.1686569346691598
-0.3816360178343284
0.07659643921155523
-0.1473996189403879
0.1870169184200801
-0.0396172990926964
-0.06704916309464146
0.06704916258986944
0.8222379985927978
-0.5603879389542917
-0.002726305182010199
0.01380235181048517
-0.02003955596927687
-0.2870839473702974
-0.01745390737644988
-0.01287194922669106
-0.1320207386388059
-0.5722207820831446
0.5560367889185909
-0.5685815259966489
-0.006935850881130837
0.09916225044834731
-0.001817209257603421
0.01669581744930473
-0.1674391740217779
-0.3363447909291958
0.2331780831442555
-0.05419883710666709
0.03508837247077098
0.1321279223225148
0.1732648097838105
0.34056043486064
0.2762280257832269
-0.2780452356945723
-0.06352986079740398
-0.1549560253703312
-0.2207608553490984
0.07464490082859992
-0.01057222135821309
0.213812552843974
-0.1971167358970021
-0.08622973687259447
0.1592203695359653
-0.3549067638606897
0.208372290257411
-0.1921224159399041
0.0896664010712552
-0.4791540781610666
0.1741449722281783
0.1704344870031014
-0.2566642339864448
0.07289849854054151
-0.1946412106410861
0.1771873036990732
0.01738535126689623
0.141835016488187
-0.03958289156249714
0.06599658546906863
0.467006027949193
0.02044606340263426
-0.08074616781251789
0.0561381548557993
0.1256744895227595
-0.2603781536576305
-0.2309451260847999
0.5597091236512322
0.1572333797600667
0.07878726403826505
0.07520454494439557
-0.03106216305229536
-0.0005316763009218168
-0.003328922373146945
-0.03262445130048648
0.1708671777431842
-0.1778030291197036
-0.05658597147907606
0.02041432813440566
-0.1469421951842933
-0.05280620604315552
0.1536593379107054
0.2770656042598543
-0.04054550336022872
0.01214015355684703
-0.2552238206892823
-0.1307024380751495
0.2360416868176026
0.1788795791668477
0.129528621493228
0.02169012978384926
0.08865190922989048
0.05212494793120182
0.4522607060260213
0.01720552316424181
0.09765774341448517
0.04319667806799216
0.07212249355650034
-0.115319170252142
-0.2425822247658694
-0.2005697145835443
-0.01998188673499481
-0.2020884710158249
0.2752057029349658
)
;

boundaryField
{
    FrontBack
    {
        type            empty;
    }
    Top
    {
        type            calculated;
        value           uniform 0;
    }
    In
    {
        type            calculated;
        value           uniform -1;
    }
    Bottom
    {
        type            calculated;
        value           uniform 0;
    }
    Out
    {
        type            calculated;
        value           nonuniform List<scalar> 10(1.03655404929406 1.064436471751877 1.022324699663607 1.021176935381832 0.9968463179176751 1.012705986791582 1.033851534957112 1.062830926733033 0.8672307945566344 0.8820415404298668);
    }
    circle
    {
        type            calculated;
        value           uniform 0;
    }
}


// ************************************************************************* //
