/*--------------------------------*- C++ -*----------------------------------*\
| =========                 |                                                 |
| \\      /  F ield         | OpenFOAM: The Open Source CFD Toolbox           |
|  \\    /   O peration     | Version:  2412                                  |
|   \\  /    A nd           | Website:  www.openfoam.com                      |
|    \\/     M anipulation  |                                                 |
\*---------------------------------------------------------------------------*/
FoamFile
{
    version     2.0;
    format      ascii;
    arch        "LSB;label=32;scalar=64";
    class       volVectorField;
    location    "1921";
    object      U;
}
// * * * * * * * * * * * * * * * * * * * * * * * * * * * * * * * * * * * * * //

dimensions      [0 1 -1 0 0 0 0];

internalField   nonuniform List<vector> 
808
(
(0.7562487252888719 -0.01750375188350423 0)
(1.031257275404317 -0.01253410273533885 0)
(1.115781036921759 -0.00257551014733364 -1.810814291376607e-20)
(1.085121111429576 0.01260136441041004 0)
(1.363756942907817 0.01663276947212115 -3.919736986130456e-19)
(1.03866099925857 -0.009318893501012847 -7.147918411009762e-20)
(1.013471713186837 -0.02059121381736737 -2.318001093226725e-20)
(1.078561050653599 -0.005031498259532215 8.956624279898453e-21)
(1.253648408109624 -0.01893350822292332 6.377161822788493e-20)
(1.084387899398637 0.01001863000804143 0)
(1.013940303684045 -0.009612404819615694 0)
(1.305640912171733 -0.05181810946708592 -3.569333985582764e-19)
(1.085916383137718 -0.001656705910454717 2.031320920226815e-20)
(0.6750543425033638 0.006417124503687994 0)
(1.286165416624289 -0.1160358676644326 0)
(1.081498709540469 0.0001769510044050311 -3.809519170391882e-20)
(1.233652393882838 -0.148223834512194 -9.980929553053858e-20)
(1.074074335421871 5.717038799163209e-05 3.158307913629174e-20)
(0.9932160801988584 0.005893692127220821 0)
(1.026487093193377 0.009226107111414517 0)
(1.040419855844451 -0.01137682852183284 0)
(0.9874508319941889 0.04444456992659166 0)
(1.051117429311413 -0.006039502805806085 5.501614842213198e-20)
(1.053334824587699 0.008867627232589737 0)
(0.9327721779605405 0.1976189808422943 4.61305179182501e-19)
(1.167226752760983 -0.08774874739287082 0)
(1.185318920073686 -0.01795496349221431 1.593639953224611e-19)
(1.077394618063734 0.009379349476322232 5.192053323108707e-20)
(1.084133866381377 0.002130284956391362 5.047409383565312e-21)
(1.072029651343765 0.03093460708245004 0)
(1.07562776675299 0.002581188254884615 -1.172125989036152e-20)
(1.033048023335462 0.006487899268084431 -1.969928601292495e-19)
(1.059825921385559 0.01489489805029511 -2.3996653839274e-20)
(1.089141007813672 0.005233216189249632 -2.926739135992738e-20)
(1.119377147995883 0.03852556750392055 0)
(0.755188081373573 -0.1231456645823062 -4.534834152422818e-19)
(0.9544643541468839 -0.005823417368654137 0)
(1.068987324669525 0.02245543623609102 0)
(1.068840716674555 0.007349016708028947 0)
(1.073590436743722 0.008948938295786165 -2.836400062552593e-20)
(1.091844713695082 0.02388698033952176 1.118906376944898e-19)
(1.150041885680108 0.00394726773449709 2.193355701320148e-19)
(1.095831060750504 -0.00243827564861507 0)
(1.015957833449085 -0.00901209876490847 0)
(1.1326547454449 -0.09810913240850078 -1.654852566073709e-19)
(1.044093756598668 -0.01165801852563814 -7.897875806173606e-20)
(1.058368984711138 0.02664902951311037 -2.844900928036513e-20)
(1.231071406030971 -0.1113575458732173 -5.638348238049972e-20)
(1.067773550154635 0.01226820067938011 -4.27198436718511e-20)
(1.256610154725397 0.01887047561540725 0)
(0.9963944170986931 -0.01819741006048143 2.071419359332086e-21)
(1.0445383741362 -0.002048499014200753 0)
(1.087532830340625 -0.002268108221875055 0)
(0.9983707838800328 0.006618621342015932 -1.855241691556756e-20)
(1.251314016806123 0.03491230887976943 -2.312252414617725e-19)
(1.06384755083258 0.01835117620294358 6.162700458602788e-20)
(0.9904181212673359 0.008269726929738779 0)
(1.020258934467349 -0.01043272874789765 2.366684932839671e-20)
(1.106889508391106 -0.0002474240917712933 -1.205188951661895e-19)
(1.06157321333878 0.03103476921735806 0)
(-0.07056494852165425 -0.004084145324340763 6.956414917574343e-20)
(1.154745462441544 -0.05124639282849022 -1.926897368556323e-19)
(1.00500216050789 -0.008551815396483003 -2.601130962190559e-20)
(1.183054206692117 0.06888074060983114 -1.23390256521491e-19)
(0.9983837133898212 -0.009996023296230547 2.985972364983639e-20)
(1.084035628812639 -0.00555183139948887 0)
(1.243617721976629 0.09918194222607932 0)
(0.6960279004892124 0.003205104986229803 -7.501664945982373e-20)
(0.9901552667510394 -0.01415090909692947 -3.110761657919973e-20)
(1.460770467571954 -0.01646320640042079 4.513843386837508e-19)
(1.060577287736545 0.007565488228493459 -6.822897655820374e-20)
(1.367733870601199 0.09961356522704058 2.936659181064714e-19)
(1.05471711642405 0.006840578960481258 -1.861220651879186e-22)
(1.081275231651039 -0.01397213487742521 -5.310761360194366e-22)
(1.164896770249233 -0.2358703854205549 0)
(1.022114973687795 -0.01430879111301282 0)
(1.017512189926252 0.01750004225592382 -3.153395798531413e-20)
(1.385783985562163 0.349538446473231 4.14453974735018e-19)
(1.096957279965743 -0.04209574072348521 9.286325538142116e-20)
(1.045423729683637 0.2096050758900404 2.553008834590674e-19)
(1.125933150378838 -0.0620936658528883 1.14796734783829e-19)
(0.9220934063287782 0.005141682217959288 0)
(0.9755008340033159 0.01855912669410167 0)
(1.00413026207325 -0.04898283161529649 2.630726048299479e-21)
(1.010699594632252 -0.01292679754399025 7.407131691801293e-21)
(1.030264946432518 0.0257992216440365 1.407841903475598e-20)
(1.530158100820742 0.03788575385271303 3.289325757911929e-19)
(1.289442866520231 0.07225262940809241 5.45966810805242e-19)
(1.072477105946482 0.002939016204329186 -9.293634159950282e-20)
(1.200717613291638 -0.0945128371450574 0)
(1.033736678126122 0.001678457613255616 1.354246306356048e-19)
(1.163746290752098 0.02271742621380466 -3.243396838090039e-19)
(1.001439448361984 0.03229060962255176 0)
(0.9996277182369022 0.00202084025268805 0)
(1.044432311040081 -0.0001736073348212124 7.671442077508899e-20)
(1.207811572631872 0.1081385435640846 4.093050349263707e-19)
(1.011059403781843 0.006972893670517455 0)
(1.091158695727675 -0.07147062264495961 -1.052024584420527e-19)
(1.149148949262617 0.0376995325596033 0)
(1.209289464588571 0.09616266770403011 -1.936455229098194e-19)
(1.108015976756498 -0.02853457348781169 -7.611655769079066e-20)
(1.027576098060088 0.01154367449873217 0)
(1.085262292662758 -0.004676614543143613 0)
(1.019467391712841 0.02549697576444708 8.184220824882427e-20)
(1.072689536289785 0.05337174986785818 -9.307804743903475e-21)
(1.103774243079943 -0.00426831857125509 6.197178388589334e-20)
(1.109993965016481 -0.09731965597335612 1.537650377942049e-19)
(0.9600603266968408 0.0002958021954466138 0)
(1.066429213857552 0.03124035032767762 3.87828793575725e-20)
(1.168786066564767 -0.0757580186326534 2.354838852364672e-19)
(1.052369423564255 0.04462446563789291 -2.927735223051481e-20)
(1.022521546915457 0.06725135729738876 3.760247490216306e-20)
(1.090622587799619 0.02614763498560668 0)
(1.012960964328268 0.01786669751140262 0)
(1.028990874356237 0.009444228576079362 7.922004247190897e-20)
(0.9487352031949257 -0.03355636748525569 0)
(1.053089672208136 -0.005712635628993929 -7.966511792237724e-21)
(1.34180696176187 0.06100283134725867 -1.600434971177133e-19)
(1.080024058784891 -0.01327482250414727 2.575869051899809e-20)
(0.744054690085623 -0.001772482968069624 0)
(0.5402395692320778 0.1598055452038475 -8.171601606366467e-20)
(0.7059808741744594 -0.002543850573934207 0)
(0.6990402273463858 0.01465722615167647 0)
(1.077699971092289 0.00355426991447284 -6.839534950090036e-22)
(0.9906342377780009 0.01450559872358058 0)
(1.278693003273245 0.1233503817943541 2.467952473921237e-19)
(1.01234660466619 -0.02785813946019539 -7.965970175225482e-21)
(1.041837321831916 0.02242620692715407 1.557711161104827e-21)
(1.058501885581841 -0.01180239863523107 0)
(1.126531935169867 -0.009198939367633639 -4.939630690251059e-20)
(1.257417851822262 0.1388193221639311 -2.218614015926017e-19)
(1.0891215226112 -0.01123198152231509 -8.492787070646144e-20)
(1.069746760406008 0.02587276262778657 -1.109222618655253e-19)
(1.040749775762095 0.04671346196477695 6.80709833409451e-20)
(1.022380876824748 -0.003689648013091906 -3.44352250518029e-20)
(1.061231362796816 0.02350967967287792 6.13621968567798e-21)
(1.129902468059419 -0.005885176802570147 1.077461392777968e-20)
(1.040795139637689 -0.01468028209712052 -4.738960350740506e-22)
(1.087728214420284 0.03480702028106259 0)
(1.028323286005782 0.01332047612607389 0)
(0.7714053511534983 -0.05713534335928539 -1.83432360932513e-19)
(1.030152522038752 -0.001825314471407072 -6.973430530134079e-20)
(1.133769796867583 -0.004262134330210178 -1.310142555812996e-20)
(0.703490177941392 0.006572704493402224 7.440394695340894e-20)
(1.175374588112591 0.02054508219057308 -1.903356855883915e-19)
(1.127419721046245 0.0004985907841073017 5.544610633757093e-21)
(1.128988524603845 -0.01004617178060157 3.492363271751017e-20)
(1.000941627598333 -0.002947948881326665 -7.716956175109839e-20)
(1.096829350308018 -0.06864649218685238 0)
(0.9846129312629383 -0.0002647819335652603 0)
(1.057985579428172 0.00708900087354486 0)
(1.005383383605435 0.1881149717347185 -2.486116234727252e-19)
(0.7793935454364433 0.0124051021390959 0)
(0.856849312683023 0.1009415552428654 -8.476637635613136e-20)
(0.07927888104934637 0.04173968332683188 -3.061709935827093e-19)
(1.17337037175108 -0.0298974599970615 -2.216731867312417e-20)
(0.6713231004537102 -0.007318765316929625 2.432837706394086e-20)
(1.169962246569861 -0.1045849700499097 6.960279025800946e-20)
(1.124313464876876 -0.006464254840624873 -6.029480331619318e-21)
(1.15611031371878 -0.04858243667614157 2.154129847816251e-20)
(0.1040420782558724 -0.21266941426283 0)
(0.2604807533728336 0.08994297222802816 0)
(1.253152469772265 0.1136776985467563 1.939415151239145e-19)
(1.021469203054773 0.01981952053481282 0)
(0.7377325656365261 -0.006322036905736158 0)
(1.075312311394192 -0.01192064864019312 2.694845559641004e-20)
(0.975070549954425 0.002781314016711002 0)
(1.288256500208171 0.1323549656797402 -1.564658628694173e-19)
(1.057483177986194 0.01126880924175272 0)
(0.9934665028988292 -0.007922941135923537 0)
(1.065110129872497 0.008132748180125863 0)
(1.006166115030249 0.02081023060131038 1.734430484813995e-20)
(0.9285291440334634 0.01164780291077151 1.071196152198538e-20)
(1.177087706276624 -0.1995121529901597 0)
(1.005152040691504 -0.005206817858571019 7.763036056572647e-20)
(1.059154004209536 0.006304506889222841 0)
(0.7746514936093502 -0.003315251856005601 0)
(1.216060678985536 0.02946569869456168 1.677165325127295e-20)
(0.7050232079854405 0.001319958832512086 0)
(1.435644385702613 0.0904049822909528 -5.355163539568572e-20)
(0.9940984163523912 -0.006951461526146905 1.697954071879972e-20)
(1.274548272326876 -0.0007167967609604262 -2.915349700102099e-19)
(1.059759421408105 0.008776002134978473 1.398457615498181e-19)
(1.000903271728883 -0.01361135830703871 0)
(1.218734070560713 -0.1498853886890233 2.034488845055254e-19)
(0.7331911136957818 0.0137925419817768 0)
(1.09826832416003 -0.005155181226548637 0)
(1.151124749078258 0.06756482917625417 2.042737121233873e-20)
(1.007054399943211 -0.007167913520014278 -3.022404704386276e-20)
(1.119658303466824 0.05149826586987893 -1.762821125860341e-19)
(0.1157742763620333 -0.0822773378226999 0)
(1.072118744653739 0.03749846713988796 0)
(0.6616279362212186 -0.002928426431139208 -6.897622895403679e-22)
(1.012134296934847 -0.01948859963996549 9.781062284171531e-20)
(1.061602219170732 0.0006664162743941146 0)
(1.081448543265833 -0.1257132310414752 3.736020286468786e-19)
(1.002687698108264 -0.006220171323148061 -3.487470531882459e-21)
(1.002114497068284 -0.005237982063270924 9.040917632189499e-22)
(1.093937733993277 -0.009321456316897438 0)
(1.020689154241886 0.02048494213285098 -6.236647690222248e-20)
(1.10665788666666 -0.001637409580658354 6.710128296402897e-22)
(1.073998788896163 -0.01126506793584139 6.556546582772128e-20)
(1.08582358772895 0.02238558994389828 0)
(1.330791779332164 0.1666334231972142 0)
(1.002004356948977 0.0001226741086870278 4.416407840079323e-20)
(1.322840192492533 -0.1242762534647486 1.535766535440726e-19)
(0.05203502673239228 -0.1801307955541431 -2.570783647796321e-19)
(1.071348015957106 -0.005567795429807753 0)
(1.118014252438779 0.0009842664622365508 1.225022221915408e-20)
(0.7269372852629107 0.0178684822553838 0)
(1.063079040557233 0.002991766804341394 0)
(0.8718308487233856 0.1674173797346148 4.795674164347291e-19)
(1.268155499093787 0.129788524030294 1.869754147227764e-19)
(0.6542858923172661 -0.003107445601778727 -6.28721953405878e-20)
(1.042249324106187 -0.005004832220650677 -6.267138604927631e-21)
(1.054843037081608 -0.0002931953124478887 6.645447660660687e-20)
(1.362069819182563 0.1261283722963814 6.830093158325142e-19)
(1.3347392012052 0.2527994533244219 0)
(1.05986111888732 0.0003116441050443504 0)
(0.9975452036329718 -0.007542927511175078 1.538592421336057e-20)
(0.9940679733735226 -0.01186699793285411 4.600447770972556e-21)
(1.38262375980246 0.2005890140544862 4.234618427979724e-19)
(0.6816693523217566 0.0005935029647077347 9.836951321393654e-20)
(1.005578560922247 -0.002048959277328614 -5.966024261618083e-20)
(1.098083698779702 0.01300752378493627 2.540719828241581e-20)
(0.6694737670978317 0.005013228101876666 0)
(1.066088469540051 -0.01201612097650835 0)
(0.9971690204533848 0.1418522462956739 -1.194655296983882e-19)
(1.086753134408483 -0.006525307780980991 -2.434168949830026e-20)
(0.9821107945134905 -2.127474840672188e-05 3.278591006120731e-20)
(0.9912102587259948 0.006033659187549664 0)
(0.6383171878472251 -0.001121804191891122 0)
(0.9768710313844874 -0.001204203734591735 0)
(0.642097186815119 -0.001503541764825521 2.705786193536813e-21)
(1.090065971162679 -0.05720496148258585 1.19693832583263e-19)
(1.113207178423468 -0.0002057812031891695 1.239741047001694e-21)
(0.9579780292475074 -0.0009239413534551946 3.914902975549246e-20)
(1.015653255247085 0.01035084284668397 1.670378288322616e-20)
(1.065662773595691 0.002933683265769739 -2.337585795157326e-21)
(0.6347247369008616 0.008858378710035097 -3.648078371052015e-20)
(1.002104510068201 0.009804690017644295 -9.238052699847294e-22)
(1.03514702042852 0.01040895146668397 5.12588360082962e-21)
(0.9879961858316454 -0.01197531518885802 0)
(0.6100326522688315 -0.0004957973638841085 0)
(1.068626495343149 0.02272303109651432 0)
(1.0166798342656 -0.01554956282982414 1.056557594025956e-20)
(1.022767921387373 -0.006469565221731346 0)
(0.991282469141368 0.01473654932974044 -9.453615086416563e-21)
(1.011893076910281 0.00322807492748054 0)
(1.126851053686867 -0.004630747107121281 -1.176137193535486e-20)
(0.039249703296552 -0.1411265448028108 -4.383295808981835e-20)
(1.036630899086203 -0.01653137341406375 -7.258124511836825e-22)
(1.043238097083559 0.005544207405308055 0)
(1.083487575260083 0.0647093751622853 8.415874494218129e-20)
(0.9693832166639741 -0.002049797937182287 3.114789519890931e-20)
(1.020674812223583 0.01700621965270245 -2.376340507597725e-20)
(1.002266660681122 0.001102750140346329 2.500930901166964e-20)
(1.040830165336378 -0.005242171684709532 0)
(0.6409206150395362 -0.003995030109573225 0)
(1.025829529079151 0.02452590736736459 -7.231300810295668e-20)
(1.080410984930321 -0.0007667390705843421 4.785600043781919e-20)
(1.016541517570739 0.002649221737381952 0)
(0.979711871112136 -0.003151342444693594 -1.932348528024236e-21)
(0.8749938397617362 0.02333384198731586 -1.219185177325114e-20)
(1.014012478444885 0.002830276071922615 -1.021153766777658e-20)
(1.026992097296512 0.003429848434781891 1.801397986968634e-20)
(0.9810708200005804 0.003105165040089335 0)
(1.002355047080976 0.00999080394885807 3.509932595390671e-20)
(1.107037169269897 -0.002787371822693941 0)
(0.9247853422027033 -0.001225757376189296 -3.309204446800238e-20)
(0.9606958549784317 0.007164587203948774 0)
(0.9168138327800031 0.2118858808788704 5.213864688126673e-20)
(1.01077514827075 0.0668434016620828 0)
(0.9929206906743315 0.003894795645669045 -2.29227500942127e-20)
(1.055145365160729 -0.05416089165888095 -2.859324640083947e-20)
(0.9910488384915286 -0.0003607685370603655 3.41899808700973e-20)
(1.012243758835131 0.003644352557774853 0)
(0.9780916202169251 -0.0004752151558160716 -3.190245417936868e-20)
(1.168504722808552 0.09993138441314739 -3.368025272012307e-19)
(1.069559939370373 -0.2647487835573469 0)
(0.9933938698701338 0.001813326393219693 -2.20798764613619e-20)
(0.9809535982618894 0.006293682201956355 5.058322040956275e-21)
(0.9625931804485366 0.005409700760759001 1.02567416765701e-21)
(0.7459408463955089 -0.001074979778062316 0)
(1.118835977435384 -0.08225998632552416 0)
(1.006379788469973 0.003955734961156416 -2.175489973661728e-20)
(0.8998436846691062 0.004027334597450265 -9.780378555351746e-21)
(0.856009406086748 0.01823522520642167 4.380767256050515e-21)
(1.012721154120039 0.002140224781969554 0)
(0.9488698499649912 0.003993322065372792 1.493366747059988e-20)
(1.005705121794044 -0.0002630613180651378 -2.311638814278167e-20)
(1.02033040651099 0.0002894142151570588 -2.58643965333118e-20)
(1.112673392022373 -0.002805676978250302 -4.926452695103711e-21)
(1.118122138231137 0.0003134433375524185 0)
(1.01436365562567 -0.00775881624803672 0)
(1.021506246700365 0.003431840546991437 0)
(0.9460271627431922 0.002025183755481142 -2.151839504424502e-20)
(1.017870332007541 0.01348754577308856 5.316636554241052e-20)
(1.079624766451917 0.003467711951169374 -2.208819972875609e-20)
(1.039160118054952 -0.0009004415250604564 0)
(1.105823909979129 -0.006371222862440963 1.832010173755744e-21)
(0.9959419885905529 0.002606812076933295 -2.207925562389286e-20)
(0.9864498786396325 0.006843455170407603 0)
(1.011998817585183 0.002879316313225581 4.662160955526995e-20)
(1.367148796933448 -0.3143772615173521 -1.133885696451084e-18)
(1.122932803204089 -0.04418001126427594 -1.081067925136187e-19)
(0.9675675059737709 0.003207962332475446 4.793113324146661e-20)
(0.7783500847550237 0.0146269916551683 -3.152640853025159e-20)
(1.220775263032281 0.05351991969345073 0)
(1.22405850307865 -0.1350277834832321 -1.463539826955259e-19)
(1.078139049276172 0.006048502146934029 0)
(1.008757511401864 0.001754697900601491 2.231989778066305e-20)
(-0.161686922086349 -0.1126189130999628 0)
(0.9939679856141163 -0.004650045912225338 0)
(1.012450282526195 -0.02317909622558114 4.610297963652426e-20)
(0.7061706222066966 -0.01944549975039615 0)
(1.096797039784858 -0.01488173625206512 2.136390742545451e-21)
(1.043874184329499 -0.01148651018063288 1.742284457024691e-20)
(0.6331254158130842 0.004151842230963139 0)
(1.448952943152887 -0.1221559273874567 0)
(0.9868971019121892 0.001393494458581944 -1.084520200905406e-20)
(1.069779112118042 -0.01496841069716982 0)
(1.038029742775554 0.0004183767759927103 2.161757503615435e-20)
(1.083788546115385 0.004995420042491879 0)
(1.009027556046461 0.005539849194431746 -1.045588346007656e-21)
(1.00596675087485 0.002948313791202284 0)
(1.013985116042148 -0.01442876869260313 5.882512042251111e-22)
(1.003378283343709 -0.0207225626807808 0)
(1.033965337657212 0.005601911335323617 1.732203001935404e-20)
(-0.1943397779915094 0.03611145314631718 2.637258885986766e-19)
(0.8121019134965015 0.02855108851701017 5.301370012551871e-20)
(1.005737364062218 0.001981683309929642 0)
(1.132831773363481 0.02295801517036141 -1.221448405792816e-20)
(1.121942524799847 0.01962091463416028 8.563805489335692e-21)
(1.054271515396063 -0.01310584215678715 -1.274410492584056e-19)
(0.9987858909012753 0.01034857471963731 1.325033352573808e-21)
(1.078014481087006 0.007081053345837225 0)
(1.18535904367486 0.05351582293558881 0)
(0.8354384564844336 -0.0761487545354753 4.589448930714244e-19)
(1.101009536539516 -0.008106546543017346 0)
(1.032626699310111 0.007449578168454601 -7.385875953434248e-21)
(1.042612838256296 0.00517539135030386 6.135588154831845e-21)
(1.053717220414579 -0.06181233102881666 -7.507549273241623e-21)
(1.140034944477731 -0.0009306976391686428 1.662136690255861e-19)
(1.083535168649592 -0.008522497513581209 0)
(0.9949570377223156 0.001220204655750184 0)
(0.9959737877654188 -0.02465486827672293 -2.273607257166286e-21)
(0.9908265241923149 0.002606439444914333 0)
(1.030108256492034 -0.03880854022256947 6.355697870850331e-20)
(1.293481210740224 -0.09228261278877087 0)
(1.046807979007655 -0.01328569698109826 -1.374543163153865e-21)
(0.9861541679475643 0.01696624186322264 -8.451746841338699e-20)
(1.034308451735847 0.04074211747376343 -2.426870836935375e-21)
(-0.088198854455267 0.1514032803980466 -1.628318558091236e-19)
(-0.06444596611479279 -0.3001310200986757 -1.396502601448996e-19)
(0.8794128373246722 0.1373060801444679 0)
(0.2960851289354603 -0.01492339617666167 -3.250722407799667e-19)
(1.009675056766259 -0.01004193323213962 -1.635140789134579e-20)
(1.063858880158543 0.002636139251888609 -2.120109111716607e-20)
(0.9923208647931874 -0.01837135604033155 2.897613856175873e-20)
(1.021070312886291 -0.02902471884128462 2.511872009402755e-21)
(1.008849206028224 -0.032258816652314 -6.525286078127731e-20)
(0.9887614655969834 0.004825231924143146 -3.466569888278086e-20)
(0.9929787194093972 0.00458550117431056 0)
(1.025288389328482 -0.002039245698418793 -3.574930453257715e-21)
(1.938470495358986 -0.1552419713492289 1.079307671279133e-18)
(1.047506429470302 -0.00649541252436631 0)
(0.9952401693482367 0.008053472806453245 1.552774213868341e-20)
(1.002867225380781 -0.0001212162796904027 4.082299189636468e-20)
(1.166122018783509 0.1333744876589795 0)
(0.9983373241818941 -0.001461058439672911 3.418443259813115e-21)
(0.9486469147886758 -0.003144885740052809 0)
(1.037838882538838 0.04176448398349882 0)
(1.304998894879571 0.1668733283582685 2.333874094423176e-19)
(1.086620043705602 -0.009023791611484876 2.261761335524612e-20)
(1.018654999690634 0.03101016899292648 4.715940136249958e-20)
(1.087192979413202 -0.01060901517817514 -2.183085453710284e-20)
(1.04687952503017 -0.003122854596701475 -3.46392445156621e-21)
(-0.3840922338559754 -0.04538172847614887 0)
(0.9984438978369892 0.0145527301761269 0)
(0.1072347021339257 0.05845696809176895 -8.511405062066936e-20)
(1.006903202616935 0.02257672216260166 -4.170729953302085e-20)
(0.9927185288779365 -0.003952710798866193 0)
(1.000842669850052 0.005853109141236905 -5.068211771872463e-21)
(1.081556888803608 -0.04226632701593419 0)
(0.995578956501752 -0.01680291039393566 -7.702868656981733e-21)
(1.092824681111259 -0.05681663843720115 0)
(1.443868270797579 0.1798507957702563 0)
(1.054270823832296 -0.01202570912142888 0)
(0.9903850034532878 -0.02277671624677366 -3.892619292755364e-20)
(0.990440663333468 -0.04699688604125789 -2.331756179066857e-21)
(1.016669202282399 -0.01689473393066978 -1.682155392519275e-20)
(0.9974534278425111 0.01679313517057098 -5.69672890324448e-20)
(0.9951026448944562 0.01054320377798961 -1.51328366365389e-20)
(0.9936237206686811 -0.02763989763546349 0)
(1.003297000923618 0.02498253656525806 1.974860898797546e-20)
(1.050856302202305 -0.04420557644517038 0)
(1.111095481175588 -0.03555170418426419 2.646966096418879e-19)
(0.9956431351119259 0.0173041479869291 4.693327054163084e-20)
(0.6151070168213734 -0.008668944119825276 0)
(1.134058593143505 0.1365741378684231 -5.482282126566013e-21)
(0.8596849599145805 -0.1035864585094687 0)
(1.138128943787251 0.07333674206727966 -2.671414022421806e-19)
(1.316636284241703 -0.3886940022589176 1.303258781728445e-19)
(1.073373416414374 0.06050225179126398 -1.309035451658375e-20)
(1.0096163365614 -0.03148302814577129 0)
(0.9559989487847466 -0.2160157607416561 0)
(0.4986539888641768 0.1409892561283654 0)
(1.01384286039038 0.009176589228304777 1.275803824548424e-21)
(0.6886821471956178 -0.0286994970132207 0)
(0.9990084481331967 0.01825787598004196 3.590492433128315e-20)
(1.022691396035053 -0.004785038048275968 -2.80339414643408e-20)
(1.079095368358703 -0.008102282036199877 2.816439431144558e-21)
(1.039306180345312 -0.01072009505330417 3.383372478751514e-20)
(1.042394118030996 0.01131824968699797 0)
(1.063168167601628 0.02904330310929571 -9.802745230082929e-21)
(1.050057106049059 0.03465252908057292 -1.838803663695083e-20)
(0.9825787384785392 -0.02234475985606483 0)
(0.6249444549528437 0.005118233313476122 9.180661815391667e-20)
(0.8941611632266498 -0.005869731145516462 -8.855837099478453e-20)
(0.9093762364206385 0.00533884416013177 1.443493435049585e-20)
(0.6295504807141739 -0.006387138792131658 1.404428663242166e-20)
(0.9785167171018443 0.001250737118314011 2.61782526294316e-20)
(1.004461310192945 -0.01750943769378276 -3.63298694001194e-20)
(0.971027521655723 -0.02513436259655708 -3.636983723654767e-20)
(1.085492161266215 0.00155568053812625 0)
(1.019901756152218 0.004366983595446816 1.03679786232985e-20)
(1.132531081282451 0.0490174803003508 1.293316234495594e-19)
(1.033470022252267 0.04040590794536725 0)
(1.022275223038103 0.0025493170731682 0)
(1.585496627397687 -0.1666700139122598 4.428472312154199e-19)
(1.046392150365805 -0.0412785510808024 0)
(1.017365594763939 0.006763255086540149 -3.814465613709426e-20)
(1.087599504549477 -0.001035719980864924 0)
(0.4795994692040396 -0.03502892072221168 0)
(-0.0193639289634555 0.02254195159061985 0)
(0.9904026887995718 -0.02439152720726551 1.211115245155077e-20)
(1.30169638790825 -0.09492878903332207 3.778904146572624e-19)
(1.035863574569612 0.03686953492175663 0)
(1.022279229725253 0.003327479730152664 -2.261759010753854e-20)
(0.9638744070660079 -0.1631004550170411 3.226065699467321e-21)
(1.253560830916175 0.07911971454094639 0)
(0.5972836884081267 0.7295412942512176 0)
(1.313342418472583 0.1525088213257354 1.125170672657471e-19)
(1.679178092815167 -0.02428458607814798 0)
(1.054390796755006 0.1063943365457349 0)
(0.7101207735061861 -0.02107536037437505 2.739008467396871e-21)
(1.05257334059727 0.04490068694821144 0)
(0.7308307651790742 0.1134852215339795 1.163478647133949e-19)
(0.9967655693526591 -0.01654672457894889 3.566681582888671e-19)
(1.034085351038698 -0.0421413372686604 2.766358317017934e-20)
(-0.3798644769239466 -0.001062657653155422 0)
(1.071822036168544 -0.01645530497812943 0)
(1.093763732793179 -0.006837016667151348 0)
(0.6488585729875549 -0.504092595313966 -2.466640812335823e-19)
(0.991134247843798 -0.001609624371167272 0)
(1.092101989869304 -0.02132792509273753 3.677597872431937e-22)
(1.187431181109915 0.1215420784012246 -1.979979644704014e-19)
(1.089220013253542 -0.04488025433414013 0)
(1.005592786004527 -0.02143820377088593 0)
(0.806602133463547 -0.1802621617371574 -1.690674079189991e-19)
(0.8905255743947814 -0.1273306540479038 1.563470327040696e-19)
(1.027526871357674 0.01291419383641935 -2.275405528022671e-20)
(1.023108074365197 -0.009064829240225737 -4.65618472800594e-20)
(0.8773268250140462 0.01395686433509851 -9.84397643130834e-23)
(1.506628984969523 -0.1930387132171099 0)
(1.303514292462296 0.1220890242425456 3.148203182169686e-20)
(1.245490232759862 -0.07408354240818969 -3.066686443605161e-21)
(1.095756214799703 -0.01844544886108177 -3.830406692993045e-20)
(1.040287705074502 -0.01117681322532594 2.399760521758077e-20)
(1.092832886854727 -0.03909333999193353 9.018728922079611e-20)
(1.03191229273151 0.01984221071577283 0)
(1.044316067495072 -0.0360152717447384 0)
(1.11593163028499 -0.008972637286377629 0)
(1.087746409874906 -0.03122227216272985 0)
(0.9979306860609202 0.01120492129456797 0)
(1.147569473013146 0.07808831690944669 9.548053444204639e-20)
(1.339608628821289 -0.1476883296703327 0)
(1.036196781656485 -0.02225386612611495 -1.887005165585306e-22)
(1.052252785054858 0.05038473665995329 0)
(1.01016028134302 0.01472462213723904 -3.995759942023037e-20)
(1.03390286872704 -0.007730412090828251 9.024885196038168e-21)
(1.088939635029896 0.01341894542769149 -3.285250882196582e-20)
(1.085469013234616 -0.02881950177426288 0)
(1.073661120030239 0.002326568722129295 0)
(1.10915730676094 0.0950491729928617 -1.430664337342632e-18)
(0.9355722424366472 -0.150192434500877 -7.056199228973318e-20)
(1.168141499945284 0.1077215095160317 1.110479152432405e-19)
(-0.4860205491307494 0.0116038955389057 -2.917861528330046e-19)
(1.018867673418339 0.02851477508371745 -8.931404197186918e-20)
(1.00394086524095 0.0003504732508824615 0)
(-0.2953951410924056 0.03281566175026425 3.556605755582159e-19)
(-0.05010417801746971 0.3007161489453103 7.88030993574373e-21)
(0.9952278507839355 -0.006275108422095024 9.971923950398343e-20)
(0.1909938105481844 -0.04006942698863526 1.433644728138968e-19)
(1.092454336742559 0.08020171163440237 1.489150516140265e-20)
(0.09419238997845465 -0.1104877589761279 -5.533453891355656e-20)
(1.108033723324371 0.003007432454056747 0)
(1.105064730767265 0.2596223588255172 0)
(1.021735542220343 0.02170898423904139 -1.748521910747358e-20)
(1.073692198683081 0.05316715027051623 0)
(1.02677007489047 0.0264413109666363 -9.544526831545078e-21)
(1.264127252429199 -0.5491895251546413 8.069913562465685e-19)
(-0.10967318117336 -0.1994750274841546 2.224797203184299e-19)
(1.297431547217018 0.1189868557929905 -6.379050299047715e-19)
(1.122038682792189 -0.003320105608525947 0)
(1.126345981662927 0.09460920329471145 0)
(0.5299283758748978 0.08363143323428042 2.572086571648874e-19)
(1.023635561299062 -0.0208487032153401 9.256137807805711e-20)
(1.006108392647939 -0.02398646672150394 0)
(1.21067871799672 0.270841018307384 -9.481601052503343e-20)
(1.261643029665063 0.1403069768704787 -1.620226648217624e-19)
(1.026658356600236 0.003098439032198986 1.520223989673153e-20)
(1.302060557552129 -0.08452660880111751 -5.036425432197907e-19)
(0.2914767109678143 -0.01296128658304492 2.598614391149613e-19)
(0.8246169056698553 -0.1444234660822236 6.620547411666518e-19)
(1.049539311916457 0.05341476017340954 1.053635222585051e-19)
(1.040336355937991 -0.004904241923515701 1.808101458953738e-21)
(1.001544959677085 0.01986091051556737 3.015658046680686e-20)