/*--------------------------------*- C++ -*----------------------------------*\
| =========                 |                                                 |
| \\      /  F ield         | OpenFOAM: The Open Source CFD Toolbox           |
|  \\    /   O peration     | Version:  2412                                  |
|   \\  /    A nd           | Website:  www.openfoam.com                      |
|    \\/     M anipulation  |                                                 |
\*---------------------------------------------------------------------------*/
FoamFile
{
    version     2.0;
    format      ascii;
    arch        "LSB;label=32;scalar=64";
    class       surfaceScalarField;
    location    "647.5";
    object      phi;
}
// * * * * * * * * * * * * * * * * * * * * * * * * * * * * * * * * * * * * * //

dimensions      [0 3 -1 0 0 0 0];

oriented        oriented;

internalField   nonuniform List<scalar> 
1171
(
-0.9279199302676757
0.9279199302972397
0.7872615512524918
-1.098746978869358
0.3114854275426776
-0.1948637448315097
-0.7673156122302656
0.9621793570282758
0.07208007686268653
-0.1174510559707599
-0.2117859708820867
0.3292370270547575
-0.7872615540642197
0.06928858020454806
0.7179729738520865
0.8107418123809712
-0.1773921676679084
-0.6333496446915527
0.874216574561988
-1.043475574226203
0.169258999637755
-0.284698694115498
-0.09796065481753424
0.3826593487072256
-0.0360470430177993
0.5483559207027103
-0.5123088776334561
-0.5066453485443959
0.8288705651847729
-0.3222252166084696
-0.4021497567839705
1.045663038539628
-0.1714464624398179
0.3958892975163854
0.04878944790710666
-0.4446787449108992
1.046404470892908
-0.0007414319799954221
0.446417010075604
-0.05052770876411174
1.056942271396838
-0.01053779510752768
0.5782122132720784
-0.7730759649131066
-0.7243288758305947
0.5571290681125337
0.1671998077554866
0.2200639172711504
-0.726709260598397
0.5501092159253572
-0.9225940230759222
0.3724848076243577
-1.094188074095749
0.6864349817744814
0.4077530922445391
-0.59535309778761
0.5593060486835219
0.01785211846668396
-0.2565184725161679
0.2386663547546776
-0.02432459080692092
-0.5235148258716772
0.5478394165877241
0.3998488727477894
-0.4978095346124786
-0.918756669576921
0.9414874999565875
-0.02273083038212236
1.06777176145418
-0.0108294875350178
0.9352137398289996
-1.116982465247414
0.1817687254521344
1.067411501447777
0.0003602652731888758
-0.6642814562568723
-0.06004741999146695
1.262057524382173
-0.8644461469573954
-0.3976113774287927
0.1486548371961358
-0.109115246774
-0.3256053735264864
0.4347206201229922
-0.2857031807152758
0.1913258377537816
0.0943773426490804
-0.5833913278036507
-0.5153556501687709
1.014115357762868
-0.07890161755548616
0.009920911027186221
0.8254448851748593
-0.8353657962173517
0.571786215647603
0.6902713068785262
0.4392406687572992
-0.03064682560869368
0.4304956977356446
-0.8077282012214644
-0.1026239645076874
0.9103521657678809
0.5027077252288961
0.2539078571469545
-0.7566155823567897
0.003642213690509709
0.5301808414937317
-0.5338230549971317
-0.4899021991409512
-0.6042858712468763
-0.4229041139118632
-0.6940783516748054
-0.02746196338344535
0.270439358561231
-0.2429773956528816
-0.9249090959738755
-0.00520491495176805
0.9301140109043652
0.3078305675475811
0.07482877238592295
0.762285729036296
0.04845608518698687
-0.5330084632414429
-0.06234463793281113
0.04631397169128501
-0.854042170667377
0.0767138667295023
0.8618230135160235
-0.938536880244819
-0.347401405547962
-0.04098511218583157
0.3883865177542335
-0.6824308571963664
-0.2424782412849846
-0.6316671390856047
0.7083810078587693
0.6095296977067445
0.2193408722267975
-0.5429557112723993
0.9462145531523241
-0.7793728518516915
-0.1668417013074782
0.02090040759834231
-0.01199447741643824
-0.00890592965995083
-0.4029786137451862
-0.0948309219352816
-0.2419862526995805
0.8515159557417717
0.04711058609394635
0.3341672660405356
-0.3812778523758711
-0.4607945171856271
0.9635022438079724
0.6801187546947348
-0.7827427162242534
0.318183641653168
-0.01566032627724953
-0.3025233150730332
0.9306643797928443
-0.9306643798006357
-0.7830197256556252
0.1112242052052764
-0.323010181115778
-0.7500424949172989
0.7599634046582091
-0.09090402883242496
-0.1426798782038954
0.2335839067365592
0.8649336480991558
-0.03948876469159211
1.054485177421455
-0.800577316737208
0.186165907621403
-0.3157688484482749
0.1296029408727354
0.8590902544576322
-0.09680452539933014
-0.6116822829844276
-0.03943801817632612
0.6511203011490538
0.123790822881506
-0.2309229512677994
0.1071321290594448
0.8056098824459564
-0.9830020490081022
-0.4349632913291049
0.3294145220620088
0.1055487694875075
0.5321818465867868
-0.5565064345389529
1.022130563757578
-0.456279112912415
-0.5658514508406008
0.5992264510225997
-0.7192935517728871
0.06660163479888496
0.6526919167496396
0.1024746732049896
0.5704305783900119
0.05465818470000269
-0.6250887630214382
0.1945591161964384
-0.083334913511842
-0.4928916912226634
0.1454902868583678
0.05037225906735762
-0.886783841715305
0.8364115826777733
-0.4747253808614416
-0.7133899996144223
0.04910854094674802
0.4364867539725846
-0.005991060665167792
0.2999877967498292
-0.8552783371720785
0.5552905405612106
0.4157258018975798
0.5842741981268206
0.5606127654511199
-0.5142987885772849
-0.3652942209423703
0.03621714017248333
0.3290770792112592
0.6813340462430448
0.2493303330830402
-0.5670285913558385
0.5706708036279382
0.1108813815280062
0.8748984644827502
0.01029471155243542
-0.6219769951895826
-0.7492878883062287
0.7996601472978168
0.5309925570038742
0.07159413383645444
0.3007806925098429
-0.3723748262600668
-0.1676071844145085
0.4427428712277425
0.08743796421652562
0.8750330731168284
-0.7982127721135226
-0.07682030095318505
0.6355326076847498
0.3106819449843635
-0.4304405780839781
0.5754304739872886
-0.5038363401022817
0.4171111695890204
0.1329980518012316
-0.046898249981011
-0.5887455557021979
-0.1387702360602511
0.7275157917524282
-0.1496692068569439
-0.7809951757077485
-0.6110624080379569
0.3605180337700992
0.2505443736489565
0.6222674633900834
-0.6119727511344932
0.238332997302999
1.011631358130912
0.04285381846081426
-0.749287888058094
0.2198719559667562
-0.1989715559466562
0.6801187564784196
0.8021456616394649
-0.8021456616626007
0.8376752982714634
-0.8332809098760395
-0.004394388351181317
-0.4453642440170512
0.8610900451126939
-0.1476291706811195
-0.3452625230777978
0.7347394725919743
-0.6685047321571548
-0.06623474047533061
-0.7325844634660432
0.1438389058417531
0.1388654379232788
-0.671873901338687
0.7827427102438768
-0.9503498946926197
-0.3648249203035823
0.2872940603497962
0.07753085960645127
0.1458425642600025
-1.009618903109877
0.8637763388637513
0.4806103342274211
-0.04136966551328738
-0.3081484731388703
0.5863695085978966
-0.2782210353924018
-0.7383434113886327
0.8841859735872217
-0.1571053884524682
0.7346268098475455
-0.8369728904184843
0.1023460806426497
0.9782286515888127
-0.5414841675059155
-0.4367444841067311
0.7552474126374602
-0.06484793054255593
-0.03574480619849226
0.1875878704031794
-0.1518430645083161
-0.775734637460462
-0.8440256992674743
0.0767100802467006
-0.750042494946882
0.5141334605429326
-0.5551185746383833
0.09119454629138599
0.7178608995741734
-0.8090554457939406
0.7536822702537178
0.1742376677312437
0.5028855715903233
0.4971144283969353
-0.0536182678188645
-0.6058716489613364
0.6594899169298626
0.8790196527230542
-0.003986576626182303
-0.7552474126298602
0.7996601487168655
0.1912185613592743
-0.4477370321924605
0.01814456192525689
0.00126006253900715
-0.01940462225492799
0.5894713776053695
-0.4382109436792598
-0.1512604337131796
0.7179729759213652
0.01401636764909168
-0.1093988914773176
0.4379869817196513
0.1514843980452057
-0.01351638516966062
-0.006869905040167735
0.02038628982741419
-0.0337622164098488
-0.001982599048002848
0.2439537289480663
-0.259614043301776
-0.9592510493547199
0.002012450687224812
-0.1595909006444533
-0.1208711904383624
0.09474821187822481
0.7215159950638084
0.7289958580981345
-0.1447216593654877
0.6617626857180602
-0.5705681425759028
-0.21191581344744
0.398081720861992
0.6954895969198579
0.02248337899037812
0.2416465467622814
-1.074927453826535
-0.9503498927062461
0.3018395121223136
0.7599634039198108
-0.20887258956446
0.06619271418387396
-0.7235284461266001
0.9094247702962149
-0.1858963241468114
0.4163265691519715
-0.0279400568286351
0.7715636526548364
0.2807064535034666
0.3733411155261736
0.07307588052322862
-0.6586998690861727
0.6586998690737198
0.214806909824148
0.6955452598601136
-0.05515180579228345
0.3893190710477216
0.3795688158188445
-0.01286736766427099
0.03101192145882539
0.4491781611763945
0.03143217062304504
-0.7383434120042632
0.5340880890226887
0.2006513856939643
0.3045132587440494
-0.1169253848625234
-0.6954895959222902
0.1796992342347925
0.7297255350332562
-0.01026818717354543
-0.8136276656604473
0.8238958528195234
0.6963193523320094
-0.7920352223034431
0.09571586998788788
-0.753682274013004
-0.1507197337100792
0.2116995409712885
-0.06097980778613436
0.07740597874103479
-0.1790986936587774
-0.1131818682890033
0.2922805623402415
-0.005779375714862187
-0.007737017092637114
0.7066173755318735
-0.7168855696652514
0.8852846047756279
0.07689474566451714
-0.3170294656933225
-0.5172681999873352
0.8342976655567456
0.103794523539806
-0.1037945223527462
0.3235112029567668
0.4732831105915729
0.6174514370567218
-1.090734547578726
-0.1941119561535539
-0.5856656419873003
0.7797775981475404
0.01357219631990478
0.2200117166164318
0.3769219865505924
-0.2531311517774461
1.013820012765723
-0.5405368993991323
0.6656196304643078
0.9946023482455176
-0.3771509084644828
0.2292928112138614
0.8841859712234176
0.7127395111554455
0.2137594853165485
0.7277280182931517
-0.7809951760779225
0.3413001356826365
-0.2765386768583258
0.2463493357359637
0.03018934094154182
0.8465082662396891
-0.007171299572543978
-0.8393369665546119
-0.7022017213894498
0.7025619891512718
0.5546357562577238
-0.7022017191770744
-0.7127395111555197
0.7025619919839245
-0.03484673847116742
0.9071358097936311
-0.02185120844537414
-0.681334037091206
0.6123516490509154
0.06898238803891778
0.5386832749032806
0.536899227402757
-1.075582502304656
0.4907045793430632
0.5231154341632837
0.5431691132459522
0.4589726654336045
-1.002141778644773
0.4963643193254995
0.4982380297280292
0.6123516425900662
-0.5255366157662946
-0.4652217219895096
-0.5566799416070785
-0.5181491601842821
-0.1191119971323996
-0.01225465305405035
0.01225465253915142
0.513006927837549
0.5231882034400438
-1.041337363553759
0.5745026906811086
-0.2737220003961034
-0.8853475766797757
0.3438634083690368
-0.6330982035982849
0.3906199618332228
0.002590991875127176
-0.8285685013908904
0.8259775095039245
0.4208473795998934
-0.01814583308720647
0.8646540967998529
-0.9486966009145137
-0.8336426946935406
0.05397348083667203
0.7796692138224278
0.5662067056904088
-0.4394886397987436
-0.1267180659199722
0.6501054538047872
-0.7290070717127097
0.8868572429032194
-0.8317942168181444
-0.05506302619591844
-0.01017200491898442
-0.7880407646991897
-0.1098059538489747
0.7129317802820708
-0.6031258264270224
-0.9363982062501801
0.9262262017054828
-0.7256901161439862
0.6916550176554798
0.03403509848593574
-0.8110921023521134
0.03900640473635587
0.7720856975640414
0.0617682319345888
0.04202628805077387
0.4329858479397324
0.06183934395238481
-0.8517213782524717
0.7898820343725859
-0.6435468082524961
0.5899285437632581
0.8894640724756742
0.07056404265199427
-0.9600281150755618
0.05582137552832544
-0.04776478683185267
0.3768418728001439
-0.381520864770496
0.06575201905603688
0.8421801611167893
-0.8395891648791546
-0.7341973620505605
-0.8133873380327145
0.02534657376344789
-0.1631287762565145
-0.8529063178213659
0.02111210731550616
0.6233440393646622
0.03841864471123416
0.03419469748208734
0.5320120173354019
-0.8072504399976715
0.8462568413472543
0.5658514496141624
-0.8467143284195845
-0.8658341649431055
0.04130164192784649
-0.03416772978008115
0.837807777386455
-0.8036400476340176
-0.02692879873445905
-0.7683650952807538
0.5443423930702911
0.1519769556305617
-0.03055733487569922
0.8952114326943842
0.9801996813154732
0.8625508514553665
-0.841438740223563
0.1476534114171385
-0.1476534103899126
-0.1185194525338602
-0.4809141482707475
0.04142551338157752
0.2703964663623022
0.03144304557269451
0.3873574908649389
0.8682826318008285
0.005736984256578512
-0.01151637070838829
0.6586017865431384
0.3413982134447155
0.7835920246287427
-0.5833913268286892
-0.7780939416571675
-0.810811353079693
-0.6798311661784094
0.6798311661778388
-0.167822392762794
-0.1551877942087752
0.6020238177909852
-0.8122050912909425
0.2101812734877325
-0.493800838446328
-0.569002168224061
0.2781563137780231
-0.9722346650716338
-0.9017360688296016
0.8466730510765634
-0.8128034072282845
0.8381499803573296
0.648736179696643
0.1342293009561228
-0.782965480644747
-0.7767762557239453
-0.1460391076218217
0.7242349519899531
-0.5781958443627764
0.03345343423613484
-0.01417183418573941
0.01801277753920172
-0.003840944051972442
-0.354926787168161
-0.1259873634219962
0.8801801285488974
0.7463585083864063
-0.2466123426212004
-0.4997461655907989
0.6196404401361003
0.6853796241273513
-0.4705727135098822
-0.0004373563440152736
-0.2852658218769113
0.02353481741765084
0.748000205180384
-0.7715350226640105
-0.3234984879975096
-0.07287600356967849
0.07592251878826815
-0.9610362890056754
0.1216993193028607
-0.6779757945788366
0.05183998507969399
0.6407764931595941
-0.6926164782603527
-0.7564495986723856
0.07847380410001721
0.5879446391237387
-0.6608206427380809
0.1571816517528436
-0.3362803424819339
-0.7704714597617047
-0.006304795946244521
0.3711878481015138
0.6011419036674517
-0.0257114324968235
0.0216841678955315
-0.02168416739880053
-0.01912457189098406
-0.04938717345815729
-0.2271515178889739
0.02578919140037037
-0.02005217968920945
-0.7320528136943881
0.2792680083106853
0.6805450501755996
-0.6892325839621126
0.008687533669096661
-0.595521053996507
0.6473610423352862
0.6531768267525623
-0.06523218794347274
-0.631345879853063
-0.1251037169271471
-1.050480781514359
0.01105200618649191
0.1366014018254703
-0.708517995587022
-0.7411518318820256
-0.7631746901188093
0.3655633112795142
-0.411644844794383
0.4640689351311856
-0.05242409033626981
-0.668260258318595
-0.04025773732538329
0.5018687447808161
0.7306818631556634
-0.2340696866952361
0.1131984954672231
0.9673410829007288
0.4462874549667609
0.1340848450265154
-0.5803722999624262
-0.6777172243727156
0.009456964120600467
-0.044704790847356
0.0305329728260242
0.6364114327187073
-0.775181669023625
-0.001856538028691435
0.001856538343952155
-0.6011665793538
0.6482889107088757
-0.04712233135141585
-0.6435225257975632
-0.1130692410245927
-0.6715166183990745
0.05605438213275946
0.6034355402218506
-0.1371475284608983
-0.8175557266908516
-0.5622394878430338
0.5654831397092366
-0.003243652246246966
0.6318347388282924
-0.6231472030368304
0.3224162623324443
0.2141504120956907
-0.5365666744235592
-0.104740400027854
-0.6017311688613314
-0.09088530890743109
-0.154879128885077
-0.5061851000700914
0.4040902769845636
-0.4989211972647568
0.1268927666890068
0.6782821441845072
-0.8051749108810893
0.5992264510259329
-0.3678098000551557
-0.04383503864387301
0.08244874844652596
-0.5886338474190453
0.5517670158044906
-0.04058027136371009
-0.5111867443276218
-0.3125840441130377
0.3051152478304096
0.007468795611474469
0.4546314241200287
0.1198712680264106
0.05144565699738017
-0.3160918452379972
0.1570113654770025
0.1590804796338504
0.2286877055556891
-0.00881574246043945
-0.293760769434371
-0.311136449894316
0.358170443491216
-0.04703399519493091
0.7873189509650025
-0.6263337380532671
-0.01718878764039636
0.4992586260268104
0.2808098851035958
-0.5274222262589576
0.5775070531123906
-0.5775070531124831
-0.2897382655810443
-0.5864445467491185
-0.2955780244904271
-0.5864445466017489
-0.5944648072324092
-0.8385126501373057
0.1700079191337596
-0.5849082298845004
0.8211165441262226
-0.003351557724096423
0.1184789831663327
0.4826629190334885
0.09672742955259786
0.1856968553036469
-0.03642219665323677
-0.1492746592263153
-0.01942508367761845
0.593819783356531
-0.9461428589896417
0.4288746624280588
-0.003542751240116863
0.003317784319860319
0.0002249668477784983
-0.6434280321503844
-0.1317103973279788
-0.4677819198861669
0.6018667620690572
-0.5036974727330442
-0.326516560436445
-0.2621172999714359
-0.2710802675390452
-0.1118682402027078
0.1118682398200403
0.1525011465789606
0.05919839134279464
0.1967488584857552
0.4552531935729335
-0.573110406071174
0.1053284894028795
0.2428065868807972
0.4663435764368898
0.5336564231636262
0.6413742051814599
0.08732606932643391
-0.005922454322254731
-0.08140361542023547
-0.2769170403143408
-0.5406386863610106
-0.5514710984288148
0.114321306465633
-0.1262553730886007
0.0119340663414428
-0.1056783643416029
-0.3858427926762307
-0.04585315393408654
0.6492886802452248
-0.4986870959604171
-0.1447409362066953
-0.3385110445187059
0.2916458882078785
0.1243899680821696
-0.6108258823098454
-0.2042445795726525
-0.2620932101602658
0.002479148047546436
-0.4222477847922021
0.323240980657414
0.09900680398178761
-0.09487451597823897
0.291650024631127
-0.895935895640209
-0.4578889583454639
0.6298635999926399
-0.7730303534717781
0.6682899534177117
0.3415542858795289
-0.1249175633832657
0.2248439599319669
-0.09992639608480845
0.02421384385431311
-0.5862926375528589
0.02918048452278284
0.5571121531747878
-0.9006897819821612
0.5472022928378469
-0.6657217453770575
-0.09946980403527299
0.1096372396003019
-0.1096372380282919
-0.3165291985407185
0.3627325962015674
0.01410927903801684
0.03110492366997039
0.05622116619403558
0.5052811231179939
0.6618598798381115
-0.7386801788450917
0.03236498695703097
0.02318264529200198
-0.001498464005535317
-0.007220226670179647
0.007220226190463864
-0.4167669436942034
0.5366382139587249
0.01538514707437404
-0.01538514714236768
-0.7922726891418455
-0.06095254789094748
0.1227207875123366
-0.4567388175374911
0.5620673093531831
0.4517745724356839
-0.4988969069422948
0.1499987554935187
-0.1499987546775776
0.0327379519433971
-0.001726038712461104
-0.04208150498181487
-0.976213104884638
0.5394686192448982
-0.4691910288777353
0.04202628835513561
0.5145852546382682
0.03104161891636617
-0.5456268734423144
-0.6161105743288322
0.1174234783355369
-0.3294639790122254
0.01343883149434004
0.3160251480443646
-0.1549802946941793
-0.0790893782163174
-0.540861380893726
-0.04543126047304701
0.1366013998759034
-0.04028170231091763
0.0384251694664894
0.08090752097327691
-0.08090752271044421
-0.5351525851548615
0.4881185964897817
-0.4145549507230906
0.1613346730814681
0.6222573515217393
-0.09770938095390426
-0.003671398592741149
0.003671398381902469
0.5329452191572821
-0.07881386864366817
0.005842719674157973
0.0269641590893261
0.03480604910664283
0.6846654732739638
-0.7634793418618115
-0.6540774451722526
0.6368886562097075
-0.10645845032517
0.313161772617524
0.7460926808153525
-0.01912457294530394
-0.2670106803088621
0.1500852853197092
-0.7446452894913995
0.4842785998527028
-0.4252460708306723
-0.1015253239241598
0.003481011802770139
-0.01431347795523722
0.01986671401365834
0.4110009839705919
-0.1215960697281317
-0.3895906739632128
0.6288011879601942
0.01947490636497886
0.01065408449755887
-0.01065408444586538
-0.3537005337849006
-0.07989939313712845
-0.5604892947610401
0.5571377371291997
-0.2380994329002296
0.4647734317798672
-0.1511730510613944
0.7293852609059074
0.6722935897876792
-0.04028170213605746
-0.6163160171882941
0.5628946981722298
0.2889616581921666
-0.2860461490924496
-0.002915509599609597
0.5420141381305367
0.09338662147087452
-0.03902644157758458
0.1964804836647812
-0.1574540423559494
0.1199339605636643
-0.1199339621590265
-0.8587404350230889
0.002345347147213088
-0.1134139477567971
0.1403781075613023
-0.1318526091826545
0.1318526086198223
0.02318263816585273
-0.02279595828625822
0.6703301590643524
0.05939537581616348
-0.3229488026364144
-0.06289399019369359
-0.4712225178643641
-0.04954938739851931
-0.1515473843991991
0.1515473835677596
-0.04866566583432538
0.1433915805239712
-0.143391579827337
0.1364220060606739
-0.1364220072617711
-0.3157736236960552
-0.1146669544185728
0.2263993645528016
0.1030151580173527
0.03484458813219068
-0.821114640389793
-0.1981000711236317
0.170194571759537
0.02102399585271991
-0.2650661409297392
0.1258909986881764
-0.1258909980747013
-0.4141211056732477
-0.08480009388096126
0.2362838895969722
0.002382469491818932
0.04062581507853806
-0.5433971668737031
0.5782439053496738
-0.03052246347720548
-0.01814320297904549
-0.02814791524229928
0.02642188855707957
0.006607190900807126
-0.1844597057319631
0.177852514836287
-0.108508622456942
-0.2277717196474342
-0.1446712933920584
0.1446712926626986
0.07282710350033633
-0.07282710384926094
-0.019319247835998
-0.1086267682990632
0.1279460165687622
0.2411181705677575
-0.1829811044167394
-0.02852405390927809
0.02702559506932034
-0.1376149304680295
0.6257335257106268
-0.03904113574137349
0.4244523736766465
-0.04312796524694857
0.06351426891667655
-0.1532709616253284
0.1532709606077907
-0.6365412662887675
0.3086707237839763
-0.07937791215535886
-0.2344853799887172
0.003562431807503174
-0.1212759616979536
0.1619017762412826
0.1955866552699124
0.09669391211502251
0.09654702882772226
-0.06174097970195033
0.07272954847580043
0.04159175666816246
0.06395026910784592
0.1062442990437482
-0.09646506671908708
0.2096635414831653
0.012510616685318
-0.1165172507979107
-0.1004005546288946
0.09731587174210464
0.003084683695714847
0.0125285579719403
-0.02365305708875694
0.03774214330105624
-0.03774214335340752
0.07520452187844609
-0.05493438773498722
0.05493438754881157
-0.224509500528739
-0.05300298382431604
0.01148527195513858
-0.1030646183899527
0.01648804427621801
0.1084602137530124
-0.1084602133568812
0.2945934602082569
-0.2714035328222329
0.1628949141579603
-0.05095436226716642
-0.2204491697489195
-0.01738748230891018
0.01738748253454685
0.3674533851606631
0.2852385379992187
-0.5276894369924752
-0.09398451771976962
-0.03227085744710013
0.52878806143804
0.2129702689325426
-0.1703167676108372
-0.3801804430579576
0.07647125462800398
-0.147635959358089
0.187173004685167
-0.0395370455369366
-0.06686844539395234
0.0668684456607022
0.8225639354437624
-0.5606187471590377
-0.005638373975179209
0.01816693166318013
-0.01998436933194011
-0.2868981885407123
-0.01750057955214799
-0.01281868865146144
-0.1319073549896974
-0.5720980373630139
0.5560226105231859
-0.5694340796042161
-0.00687608985349263
0.1029698537005398
-0.001723577201708097
0.01684895429398219
-0.1676203292162224
-0.336432289178159
0.2333676708799396
-0.05440420242227416
0.03508495516057725
0.1317938663667127
0.1733213812037535
0.3378081032087029
0.2764492333051439
-0.2781728101555548
-0.06197538425479003
-0.1551043250578261
-0.2210465441338446
0.07475886545502691
-0.01080859841506164
0.2139202848981074
-0.1970713303127011
-0.08629430198788295
0.1590238462199511
-0.3552836667251182
0.2084084074787172
-0.191920363192109
0.08958114070771385
-0.479171817654555
0.1743543120429212
0.1701275094990078
-0.2564218047689215
0.0728939773647624
-0.1944914928048004
0.1769909129965715
0.01743078685327892
0.1415930609864257
-0.03954925118920704
0.06598482124245859
0.4669603976350281
0.0203546624151761
-0.07990959780339903
0.05452719730748836
0.1260646346236336
-0.2605835891258818
-0.2308835271793243
0.5597300513333987
0.1575684410937435
0.07871544672374271
0.07525221844097039
-0.03092319880992144
-0.01159645795115961
0.008680944057064573
-0.03277263194872405
0.1710406669706047
-0.1779167565392394
-0.06004288212128712
0.02138721887474463
-0.1469293119188303
-0.05289842418648125
0.1496206730904625
0.2770694993560062
-0.03862615717888809
0.01482542891754093
-0.2557117672462184
-0.1320923655308169
0.2358795291386518
0.178811852405546
0.1298588757021625
0.0219999291740194
0.08890488279233411
0.0522880755524231
0.4529930475543785
0.01559529055143908
0.09734132586253418
0.0435812285514441
0.07182010687253973
-0.115401336190964
-0.2424509013502039
-0.2008117766620769
-0.01963738983807143
-0.202102320711604
0.2753491627413241
)
;

boundaryField
{
    FrontBack
    {
        type            empty;
    }
    Top
    {
        type            calculated;
        value           uniform 0;
    }
    In
    {
        type            calculated;
        value           uniform -1;
    }
    Bottom
    {
        type            calculated;
        value           uniform 0;
    }
    Out
    {
        type            calculated;
        value           nonuniform List<scalar> 10(1.033873692130494 1.06421989080301 1.021901663599464 1.019479752428477 0.9958718934170784 1.016387189855659 1.036195130805427 1.062803006677643 0.8672453147652843 0.8820225712259532);
    }
    circle
    {
        type            calculated;
        value           uniform 0;
    }
}


// ************************************************************************* //
