/*--------------------------------*- C++ -*----------------------------------*\
| =========                 |                                                 |
| \\      /  F ield         | OpenFOAM: The Open Source CFD Toolbox           |
|  \\    /   O peration     | Version:  2412                                  |
|   \\  /    A nd           | Website:  www.openfoam.com                      |
|    \\/     M anipulation  |                                                 |
\*---------------------------------------------------------------------------*/
FoamFile
{
    version     2.0;
    format      ascii;
    arch        "LSB;label=32;scalar=64";
    class       volScalarField;
    location    "739";
    object      yPlus;
}
// * * * * * * * * * * * * * * * * * * * * * * * * * * * * * * * * * * * * * //

dimensions      [0 0 0 0 0 0 0];

internalField   uniform 0;

boundaryField
{
    FrontBack
    {
        type            empty;
    }
    Top
    {
        type            calculated;
        value           nonuniform List<scalar> 
15
(
142.2734280100927
133.5671902089067
138.069345983892
144.4007624425433
159.7698223686265
131.3684601810272
140.1220582971799
135.3561291300933
153.4340421136037
135.744818121521
136.0926160088468
136.7732806541383
125.2436497595614
132.9024789517572
123.9471147265021
)
;
    }
    In
    {
        type            calculated;
        value           uniform 0;
    }
    Bottom
    {
        type            calculated;
        value           nonuniform List<scalar> 
15
(
155.565357891067
158.1126134248571
141.0929888417394
142.0701878913484
141.1839126563776
148.4455416275282
142.7059311992547
143.1667984029515
143.4237268694832
134.0572543577375
125.7338357974964
141.5540237650196
122.4120140237019
123.4917562569658
124.1408134160111
)
;
    }
    Out
    {
        type            calculated;
        value           uniform 0;
    }
    circle
    {
        type            calculated;
        value           nonuniform List<scalar> 
32
(
56.36625121961167
22.07741326333642
65.31627046847152
23.87196739489394
19.17668428166636
56.18799751861538
56.8122411954396
24.18011919145511
22.31757835024224
65.53448525993286
40.19375172529881
63.04763800103371
50.31111340183406
13.66333585875085
23.65004248362861
19.08894726859724
38.88553594389365
59.59892021308919
61.01763207925242
25.23263412712326
65.72589707515567
63.81415773134663
62.95728873478155
59.91412006928445
64.1061611794583
45.97407015789233
66.36663385494781
32.10123220698949
37.98936197237247
55.74115436383604
21.13801051653227
43.14115192739574
)
;
    }
}


// ************************************************************************* //
