/*--------------------------------*- C++ -*----------------------------------*\
| =========                 |                                                 |
| \\      /  F ield         | OpenFOAM: The Open Source CFD Toolbox           |
|  \\    /   O peration     | Version:  2412                                  |
|   \\  /    A nd           | Website:  www.openfoam.com                      |
|    \\/     M anipulation  |                                                 |
\*---------------------------------------------------------------------------*/
FoamFile
{
    version     2.0;
    format      ascii;
    arch        "LSB;label=32;scalar=64";
    class       surfaceScalarField;
    location    "585.5";
    object      phi;
}
// * * * * * * * * * * * * * * * * * * * * * * * * * * * * * * * * * * * * * //

dimensions      [0 3 -1 0 0 0 0];

oriented        oriented;

internalField   nonuniform List<scalar> 
1171
(
-0.9279023610689694
0.9279023610215029
0.7873949727467917
-1.099196914919765
0.3118019424806512
-0.1900445917169361
-0.7665114033965813
0.9565559949833439
0.07209763705948646
-0.1175406372526718
-0.212371190649826
0.3299118268719611
-0.7873949616331121
0.0693738297787006
0.71802113187455
0.8111763585690264
-0.1779328491425343
-0.6332435095795648
0.8739907090758207
-1.044099191686554
0.1701084826633418
-0.2853215108549522
-0.0981237347231045
0.383445246049949
-0.03652974884682791
0.5488995425913483
-0.5123697938520138
-0.5077547564707273
0.8274753343323594
-0.3197205776641417
-0.4028621413438794
1.045692013060273
-0.1717013029550413
0.3923466932712964
0.05058245029807559
-0.4429291454178044
1.045963782037516
-0.0002717679442804553
0.4445642586233913
-0.05221756709185045
1.056454842310282
-0.01049106171290958
0.5805432553353477
-0.7705878415804366
-0.7240511698632367
0.5565900348674991
0.1674611348791767
0.2138069934973534
-0.7215617576024552
0.549834224963656
-0.9225158206356106
0.3726815945958657
-1.094222823197069
0.6866284094449197
0.407594413840647
-0.5955796454153329
0.5590499048885755
0.01714038508894014
-0.2556788280665365
0.2385384419614777
-0.02248275484709023
-0.5241810712150418
0.5466638250920949
0.4002816349037895
-0.4984053629702137
-0.9189580289887962
0.9416995464280966
-0.02274151738099423
1.067791641299766
-0.01133679982476971
0.9349014684285921
-1.116709888814234
0.1818084202671918
1.067261411771237
0.0005302271293497759
-0.6643670888804359
-0.05968407760932958
1.262166573453005
-0.8643604647535249
-0.3978061087150873
0.1483033800795102
-0.1100163859427595
-0.3254681186382533
0.4354845050076837
-0.2854909007648593
0.1920038290162849
0.0934870722841724
-0.583667277534495
-0.5155296422987543
1.014100911979363
-0.07919944405312641
0.009870581783848783
0.8255019527558536
-0.835372534456324
0.5717062230755983
0.6904603528977696
0.4388831614203665
-0.03103555314850651
0.4313171876342304
-0.808076558875122
-0.1025473277230687
0.9106238864723367
0.5021287345860824
0.2540716333353301
-0.7562003679068545
0.006391133523738063
0.529955117124334
-0.5363462516990083
-0.4900161583446004
-0.6042066636692678
-0.4227623242023303
-0.6939475643591425
-0.02731198376481476
0.2707761288226844
-0.2434641438507952
-0.9248003615907996
-0.005122122870161133
0.9299224845555402
0.3084568051437854
0.07498844657645845
0.7615609523331012
0.04961540258711834
-0.5329516464384915
-0.0626279973674583
0.04600331736678413
-0.8540798750503621
0.07646983935376644
0.8629561109291856
-0.9394259502344752
-0.346868001044336
-0.04075725592455886
0.3876252573934829
-0.6820959789931685
-0.242704376722714
-0.6343856051297939
0.7108554436375745
0.6143226682826379
0.2131526595520771
-0.5434053388397108
0.945690344716556
-0.7789353208904813
-0.1667550237392811
0.01061320309140864
-0.006318403217465552
-0.004294799709246945
-0.4034818564310895
-0.09492350686404026
-0.2412680715310863
0.8555907359219318
0.04851737964015059
0.33397286296868
-0.3824902419772483
-0.4616003733852808
0.9637291031697245
0.6804520498358233
-0.7829993772395386
0.3191626661338455
-0.01534866443869586
-0.3038140007348124
0.9307187843141772
-0.9307187842880799
-0.7813209608280535
0.1112175312467983
-0.3235887175046726
-0.7499294775583567
0.7598000630201341
-0.09085746256354356
-0.1432475540774601
0.234105017658148
0.864879358076173
-0.03937739993857974
1.054530243909161
-0.8004586174853277
0.1867663235155343
-0.3163924329169081
0.1296261090146319
0.8584004914092684
-0.09683954049201393
-0.6113509961839084
-0.0391569023799572
0.6505078986216941
0.1234195760792019
-0.2303896800940446
0.1069701026962405
0.8055538046491549
-0.9834866568885416
-0.4342127177437408
0.3290846637786705
0.1051280530823844
0.5334639659128653
-0.5559467219014881
1.021932230779532
-0.4562182019378446
-0.5657140287988436
0.5991699075132622
-0.7192992287630476
0.06651612196373392
0.65278310717026
0.1022001176738101
0.5695645776453458
0.05521530546845672
-0.6247798833072402
0.1948432340995067
-0.08362570734747293
-0.4920902730290417
0.1452222722056503
0.05025333897382873
-0.8864215720372447
0.8361682329559028
-0.4735986133387058
-0.7131819662533783
0.04881487852788987
0.4370723178587496
-0.005755126378345435
0.3000678246929221
-0.8552923300406161
0.5552245051874394
0.4157591519965583
0.584240847871544
0.5605508430076259
-0.5145475285439282
-0.3676800526022033
0.03971080721122436
0.3279692492867086
0.6812614555777596
0.2494573290400008
-0.5672214540208939
0.5736125885959069
0.1116042026398508
0.8749276260337753
0.01022244898576095
-0.6215734420484036
-0.7490576321932442
0.7993109706814946
0.5304076825925028
0.07026277450879015
0.3009424082295528
-0.3712051830658675
-0.1674514631266409
0.4452173392708077
0.08473779079058463
0.8742077086976017
-0.805001475070436
-0.06920623369339175
0.6353646376258874
0.3103257093083823
-0.4307938401243345
0.5737589814673696
-0.5034962062894514
0.4170723351238388
0.1327618894972033
-0.0467313372913267
-0.5924391816509137
-0.1390504943328166
0.7314896759742453
-0.1497404526040867
-0.7809783287039739
-0.611024118337637
0.3601958974642309
0.250828222262846
0.6219325246179541
-0.6117100753773613
0.2390543610957453
1.011571522854464
0.04295872012137853
-0.7490576349037166
0.2297453592639351
-0.2191321558277498
0.6804520525142455
0.8017829327174713
-0.8017829326054569
0.837606694870207
-0.8330730685693203
-0.004533626388724789
-0.4453424768214146
0.8611016310137753
-0.1473028584368813
-0.3447874120071494
0.7347629620097261
-0.6685670837883103
-0.06619587814654029
-0.7363231016940737
0.1438839200491212
0.1391237739066815
-0.6720754205742459
0.7829993877465035
-0.9504508508157754
-0.368293834077031
0.2879342876292356
0.08035954947560256
0.1457254117163848
-1.010114725656933
0.8643893139121296
0.4809302505740342
-0.04204708905163972
-0.3080729561257358
0.5862547869097909
-0.2781818309735268
-0.7386093109782842
0.8843347246007986
-0.1570027931376362
0.7313678194213717
-0.8398087075581261
0.1084408882428165
0.9766515245004833
-0.5390989006277424
-0.4375526237532237
0.7550515927847541
-0.06498340378381175
-0.03393830313888822
0.1845946979197558
-0.1506563943557361
-0.7758099663976755
-0.8392057396423105
0.07269434220729401
-0.7499294759181359
0.5137494148744516
-0.5545066664127081
0.1005186644222846
0.7166257008901952
-0.8171443654842235
0.7535912717262817
0.1743110715742821
0.5029300474518505
0.4970699525786411
-0.05360098896792458
-0.6120221408535343
0.6656231288605727
0.8813560176253301
-0.007148312166966449
-0.755051592807275
0.7993109711617461
0.1916507614815336
-0.4473295910764062
0.01281148341837106
0.003803684326749597
-0.0166151726200023
0.5888330249554139
-0.4373589022657681
-0.1514741233672043
0.7180211248457324
0.01031756820192344
-0.1078379215278901
0.4384507064060975
0.1503823178731645
-0.01616585158837701
-0.007186825745533136
0.02335267799317165
-0.03114870823238564
-0.002789591633250467
0.2459002559696284
-0.2612489272945371
-0.9587857249075223
0.00145680097457936
-0.1594747537329831
-0.1223935700549395
0.09454995945771642
0.7224610249343217
0.7289485254038259
-0.1447076760462586
0.6742803881082712
-0.5737617223171564
-0.2118842861889298
0.3986506108999714
0.6956505902454405
0.0223705346385535
0.2418385002527606
-1.074911569561796
-0.9504508477051059
0.302701679166073
0.7598000664586008
-0.209328894737831
0.066081340083329
-0.7239178252205719
0.91082037716418
-0.1869025519157657
0.415624977727262
-0.02799971308116979
0.7711848275464063
0.2807007728697424
0.3767189693122123
0.06784529687195771
-0.6587123467252685
0.6587123467455741
0.2147398529405227
0.6958840339354552
-0.05649817508141974
0.3904710307036789
0.3789863276782843
-0.01384423463671844
0.02665573502766802
0.44828089401982
0.03264936048983158
-0.7386093101879001
0.5339714725744742
0.2007914889756337
0.2999961242955007
-0.1154014231776172
-0.6956505891284157
0.1797098755997631
0.7311105008464244
-0.01021913801404984
-0.8136137695856263
0.8238329076073394
0.6964161045970692
-0.79196106504588
0.09554496034608913
-0.7535912655664355
-0.1506738417769237
0.2120794120538131
-0.06140556933711618
0.07748417719853914
-0.1783904508317386
-0.1127567336517627
0.2911471828942423
-0.007314652433410102
-0.008851190768893052
0.7063444671375825
-0.7165635970916669
0.8871359135734083
0.06942008594025668
-0.3121018462269798
-0.5228610692790177
0.8349629155964086
0.1035359587389762
-0.1035359622899632
0.3276450930569354
0.4759086615067158
0.6114375350943299
-1.087346196612983
-0.1940860364523962
-0.5855385676974848
0.7796246041234279
0.01304220821832332
0.221062804085514
0.3761887699130217
-0.2527692034814434
1.016094149033802
-0.5401854908544731
0.6686881824169971
0.9924977163699713
-0.3810601846733797
0.228885915178317
0.8843347263409734
0.7126334233260007
0.2139085417497091
0.7277910025059321
-0.7809783281901674
0.3412876411964891
-0.2844321211640162
0.2605242220469119
0.0239079022125952
0.8501556875655879
-0.003600514208405908
-0.8465551736530761
-0.7021423597648665
0.7026725854221796
0.5546575220418087
-0.7021423602876835
-0.7126334233052883
0.7026725849526814
-0.03375749676737235
0.908568815718641
-0.0214328989437561
-0.6812614662831696
0.6122396932412599
0.06902177305930492
0.5385526023099834
0.5383120483558368
-1.076864650699995
0.4870359396081266
0.5290582083973788
0.5482361229305928
0.457396741357622
-1.005632864347706
0.4925164400037776
0.4999812749042951
0.6122397005930146
-0.5256746495737716
-0.4666500402065902
-0.556190987879424
-0.5135960069926987
-0.1231830028596778
-0.01281916650881235
0.01281916752706453
0.5100014864986815
0.5245841350552588
-1.038180142162975
0.5718942314956538
-0.2709518223609234
-0.883039189214205
0.343940289216238
-0.6328203674434195
0.3901159927113633
0.000237726151283636
-0.8258175528321032
0.8255798268068082
0.4208755809012778
-0.02507194088780132
0.8752276285738454
-0.9464874554968654
-0.8335238960757412
0.05601959873761879
0.7775042975022205
0.5568117975124923
-0.4384134175277571
-0.118398379942095
0.6502353674659788
-0.7294348110284783
0.8872394863657442
-0.8267740023626039
-0.06046548369959747
-0.01480694218400541
-0.7901945360843159
-0.1112667125285532
0.7133688752200715
-0.6021021627148073
-0.9413725856209593
0.9265656435135934
-0.7305194593888517
0.6883670141091394
0.04215244535195343
-0.8025972154783769
0.02884464598521977
0.7737525696097505
0.06194576032593786
0.04159020111467511
0.4328297198758295
0.05924797730677898
-0.8503705526433211
0.7911225752352777
-0.646176577892136
0.5925755900283151
0.8885904471091082
0.07369617615308581
-0.9622866232430184
0.05506655479835102
-0.05053455040963861
0.3785038007843269
-0.3819370902427749
0.06554465621024169
0.8405269026288086
-0.8402891773639674
-0.7331771232225669
-0.814644985661385
0.02445044974435657
-0.1668047970709569
-0.8482262350244852
0.02145222840022705
0.6220785720340355
0.05220181744156976
0.02151641469651605
0.5352953821594415
-0.8157221731988107
0.8445668230778163
0.565714028942195
-0.8508894947873008
-0.8676764069331152
0.04089241338853128
-0.02788423337862563
0.8340026849032244
-0.8061184514525825
-0.02264641121919122
-0.7610613551718824
0.5442806352325441
0.1521354761988472
-0.01828051357818988
0.8935081420969226
0.9825852444308958
0.8617073586553957
-0.8402551312957044
0.1478771650078328
-0.1478771665450092
-0.1174960105839269
-0.4646046027802391
0.02619118388846639
0.2708860462925941
0.03181563330880766
0.3870365372461329
0.8708617323951668
0.00887681517537923
-0.01619146440195459
0.6585881821156916
0.341411817902278
0.7836308317517637
-0.5836672796138836
-0.778088081630174
-0.8097189627362009
-0.6799310649331403
0.6799310649516579
-0.1682603715017615
-0.1553283441625713
0.6022068876236958
-0.8113325411818192
0.2091256536006876
-0.4940937732746154
-0.5688455076041954
0.2779748978988204
-0.9719224622188162
-0.8987242929738715
0.8382588037374059
-0.8167042602696457
0.8411547112161383
0.6485160580589295
0.1343030373100115
-0.7828190953994068
-0.7675665184806485
-0.1464774568711102
0.7252578718018307
-0.578780415008485
0.02786256303401311
-0.01165649206985587
0.01545398439316475
-0.003797491178531489
-0.3523364635016109
-0.1122681329019408
0.880181788419934
0.7431139150438723
-0.2411739562542754
-0.5019399596374956
0.6247155439270973
0.6857978405372401
-0.4710579882102238
5.700136435501067e-05
-0.2855479007901607
0.01119251288445863
0.7502754913233269
-0.761468003911085
-0.3234064015156304
-0.07256399127431737
0.07639051346102016
-0.9678266789160592
0.1212715062661017
-0.6770294993585269
0.05428951513015055
0.6396786162608693
-0.6939681314375006
-0.7561437380453451
0.07911423870434148
0.5891739230785287
-0.6617379142676321
0.1569896703458445
-0.3353801195991263
-0.7719650529139948
0.004398534333554429
0.3710854744848618
0.5996433087808585
-0.02588432385736267
0.01943951760643572
-0.019439517671745
-0.02000597680225857
-0.05039294248292277
-0.2340391783706616
0.02561371027548145
-0.01673691677229507
-0.7197632370984254
0.279340789851116
0.6791208472379046
-0.6892940109551471
0.01017316397369035
-0.5946906039009242
0.6489801149456264
0.6545930821306338
-0.06541915607355643
-0.6306346276948831
-0.1255091141981133
-1.050284759556911
0.01115479370389703
0.1367223745198099
-0.7085707255561404
-0.7419013470254497
-0.7639374348163868
0.3661313280454542
-0.4051300535334806
0.4624375536295453
-0.05730749944688956
-0.6661944527903562
-0.04237627267924129
0.5002958319696047
0.7306858276524599
-0.2358772791568864
0.1134837095613823
0.9634281463299804
0.4466741531341605
0.132131870040407
-0.5788060232735217
-0.6766169992808063
0.01042254818761598
-0.04449920269757127
0.0328427074336048
0.636997577257846
-0.7760480711883146
-0.002276516885647846
0.002276516872579894
-0.6005147914626484
0.6497162686838718
-0.04920147741564051
-0.6551005865872539
-0.1137020609715607
-0.6716847245458639
0.05915518328442234
0.6064679426315788
-0.1376316306520276
-0.81816218008013
-0.5721562835331322
0.5715640907846771
0.0005921916844920739
0.6287734588360826
-0.6186003006404812
0.3224946496475026
0.2136014542510472
-0.5360961038853852
-0.1049037670699393
-0.6019537707255369
-0.09201436205973655
-0.1538406336770419
-0.5130011001260673
0.40428156662419
-0.499205075094968
0.1263317904857026
0.6787186219151318
-0.8050504122898432
0.5991699075088699
-0.3715901565954897
-0.03353989929514535
0.06802367067137204
-0.5810247758081294
0.5513297994746198
-0.04048267509292727
-0.5108471244921178
-0.3131497227924875
0.3057852276580658
0.007364495927415797
0.4518105592507197
0.1200836732769858
0.0526393133744897
-0.3165640741857765
0.157588829316996
0.1589752450488203
0.2432915325163855
-0.01354617333153316
-0.2947774215819655
-0.311315211844759
0.3517442673791917
-0.04042905436837668
0.7899596883763494
-0.6273883404267308
-0.02771224673512908
0.4993658277043331
0.2852915911323173
-0.5264655424679875
0.5774575865733104
-0.5774575865725147
-0.2897695242840193
-0.5864895967488289
-0.2955578198009711
-0.5864895967967092
-0.5961552894796498
-0.8384817471209457
0.1699146613641788
-0.6011971430009529
0.821163557658512
-0.003176867791608026
0.1178438365562706
0.4817994739253705
0.09678477325745359
0.1859779690507869
-0.03636724184197183
-0.1496107252965345
-0.02963306282470795
0.5901858681557939
-0.9426562113141587
0.4197951391460593
-0.007852169569995505
0.002000203069346784
0.005851967939046449
-0.6441995697481491
-0.132086013447362
-0.4674581412105454
0.5995900133219737
-0.5034783050808679
-0.3206072253296783
-0.260417531193662
-0.2719983716621088
-0.1114344943461223
0.111434494437514
0.1534889585765035
0.05859045841336375
0.1971327665600479
0.4488913683076424
-0.5696544007886574
0.102196256018205
0.2526720599332751
0.4664600642466452
0.5335399366573934
0.6452148973404069
0.0849272479087058
-0.000390792634628775
-0.08453645032567682
-0.277139165572818
-0.5410230146641548
-0.5476610158960418
0.1148933015967334
-0.1267138011447034
0.01182050006822805
-0.1055348894111782
-0.3852700851094264
-0.05052429021519579
0.6569922532358817
-0.4994247361717803
-0.144774833501984
-0.3269256284963213
0.2861518880486983
0.1293875078330961
-0.6161379942451163
-0.2046276181855636
-0.2631072483626841
0.001858337896517104
-0.421140538423011
0.3232162926999205
0.09792424625358148
-0.09278830416457626
0.2917384891570887
-0.8959451538340514
-0.4573187426250241
0.6273591899445476
-0.7732685876927928
0.6683648206677425
0.3399364817752047
-0.1246582220628058
0.2238993623987033
-0.09924114133832493
0.03037981352986073
-0.5862139710218863
0.02870013302577262
0.5575138376571062
-0.9006004962004126
0.5479133985203649
-0.6654094090067585
-0.1043974107192544
0.1096126718776144
-0.109612675434644
-0.316507072003571
0.3584666542655885
0.02003713987933208
0.02423657387458854
0.06069066762437634
0.5045233600782091
0.6675510630426105
-0.7367572989664875
0.02804024682405816
0.01977293867963287
-0.0003334257304159374
-0.006659670849501716
0.006659671477372708
-0.4105743385109289
0.5306580126091263
0.01580970203050331
-0.01580970185368261
-0.7926688099215802
-0.0606575147705144
0.1226032705857227
-0.4537587114122817
0.5559549679034298
0.4510315129451226
-0.500232985556582
0.1502902879411269
-0.1502902888612
0.03884414881241792
-0.01218841368057853
-0.04204443587232404
-0.9754369317079392
0.537884309592889
-0.4678818443273193
0.04159019897804682
0.5152242901166605
0.030502127402866
-0.5457264178235326
-0.6165045979049973
0.1170798639963546
-0.3290457511829407
0.01359361065959122
0.3154521398620247
-0.1553472961111376
-0.08052998957694148
-0.5410315926492258
-0.04518237005690185
0.1367223754827383
-0.04053752921540691
0.03826100688157279
0.08092887773913315
-0.0809288732584187
-0.5257906843368548
0.4853616196756938
-0.4149344132919146
0.1612976765098439
0.6223331553054704
-0.09700654813315299
-0.003985524702711503
0.003985524590343493
0.5329761824625044
-0.08084261008016812
0.006076711225002067
0.02710970355839328
0.03493054186008645
0.6877568589894306
-0.7685994693399463
-0.6577390072092359
0.63002676486516
-0.1094151581304954
0.3140428067484012
0.7455269094559379
-0.02000597482070618
-0.2652757296809024
0.1498743124853918
-0.744591982658811
0.4837528787690715
-0.4272223449023899
-0.1012802964311968
0.003249047831360433
-0.01448565646825405
0.02522293745803985
0.4116356912433081
-0.1215532011000597
-0.3892939228863446
0.6289874230958374
0.01947882530095468
0.009066206298059171
-0.009066205909477385
-0.351553001158453
-0.07689930709722899
-0.5602465666414327
0.5570696985638101
-0.2374149476419213
0.4647015963679522
-0.1507469850049546
0.7312902434750741
0.66930010274972
-0.04053752931851506
-0.6175881856635812
0.5614621814818149
0.2823736512640972
-0.2771848351201182
-0.005188814175046292
0.5372384653198278
0.09344146707808519
-0.0388712651657979
0.1960643983609439
-0.1571931324734719
0.119800146259613
-0.1198001428970821
-0.8586150303869801
0.002413115739667767
-0.1135070573368537
0.1406167593042076
-0.1314711411124703
0.1314711414213076
0.01977294567386981
-0.02399150308867994
0.6701806949283576
0.0609298068108087
-0.322587140670348
-0.06268294356622159
-0.4712839283500958
-0.04455197960940788
-0.1512348224946993
0.1512348232836701
-0.04569229035000733
0.143729839071103
-0.1437298395609336
0.1362093296931396
-0.1362093275832177
-0.3162264757422242
-0.1145673642599317
0.2259263354818973
0.103158328932753
0.03478211566076042
-0.8212324690882323
-0.1982891500457112
0.1698602049903741
0.02179055253265499
-0.2641508510690069
0.1262618797097539
-0.1262618801347758
-0.4143517235916371
-0.08485334942487199
0.2356487967596203
0.002889643430348468
0.04039134930529503
-0.5446580422907645
0.5784155390504496
-0.03491735011188133
-0.0107749369198065
-0.02459479401614645
0.01240637403128024
0.006560432336650595
-0.184828312518521
0.1782678803894835
-0.1082037354447595
-0.2271763806641509
-0.1443289601619449
0.1443289606995494
0.07237563813911504
-0.0723756380059471
-0.01891732162550757
-0.1085410255544821
0.1274583465771512
0.2339343359312104
-0.1835236117750516
-0.02424276049512859
0.02390932419276225
-0.1288464713560594
0.6142080887954883
-0.03905886836701286
0.4271085070163909
-0.04224025140314196
0.06559292425547376
-0.1529908578558257
0.1529908591397518
-0.6367092636207029
0.3080324031030633
-0.07914648768418402
-0.2340376852162236
0.003648002961423728
-0.1211996399498632
0.1615909905046853
0.1951305823862141
0.09601659999062043
0.09612823834367683
-0.06119769704903704
0.07323116260404013
0.04166213708210862
0.06420882679780784
0.1056513835496962
-0.1002832934110713
0.2137670151949471
0.01134273278857127
-0.1170201967200202
-0.1006108448551303
0.09601616741820934
0.004594676658442359
0.01070673397563025
-0.02276143543132577
0.03731234388650594
-0.03731234388669055
0.07486476038507132
-0.05540319331779625
0.05540319361979385
-0.2243482593302134
-0.05142726946605647
0.01178743626430714
-0.1031194167521032
0.01640918636740066
0.1088858238959727
-0.1088858242286124
0.2930548315258157
-0.2707539230656143
0.1625501842244701
-0.05077052196691583
-0.2199833998064681
-0.01678583645044001
0.01678583625931193
0.3676214182543113
0.2851616851197385
-0.5281107626527554
-0.09392345929957745
-0.03279034301522318
0.5289190901731868
0.2093395266880872
-0.1692591289307477
-0.3803669904435538
0.07657157499476649
-0.1471270788601546
0.186725886659175
-0.03959880768720671
-0.06722369168739389
0.06722369157145537
0.8220984844593616
-0.5603187510007557
-0.00450456533681682
0.01521130145964134
-0.02003663578977585
-0.2874143572240561
-0.01746796088722044
-0.01285782942354051
-0.1322078078119046
-0.5723382828366995
0.5561372800729421
-0.5687750469515068
-0.006905854743526711
0.0993570329591518
-0.001756041101741539
0.01678153379782352
-0.167163713595924
-0.3360782559832365
0.2329588392124703
-0.0539806144763606
0.0350632917067041
0.1322278861844821
0.1735573419021015
0.3424845582229168
0.275824250422095
-0.277580291868476
-0.06234984433596376
-0.1551864671823137
-0.2204440775652021
0.07450711501578997
-0.01029828738258546
0.2134592836377441
-0.1966777503338588
-0.08625002282107443
0.1594811872803949
-0.3551735905106089
0.2079636562883682
-0.1915544701850318
0.089628294421639
-0.4789222123403131
0.1738680530412184
0.1708055919795376
-0.2570556168833296
0.07336680032081705
-0.1949317721530044
0.1774638117702141
0.01737605149585357
0.1421051360514974
-0.03959347703342268
0.06567884768428311
0.4672973353748583
0.02052650303159616
-0.08531032153048014
0.0546402297713464
0.1261310984330105
-0.2600428875182149
-0.2309501959827912
0.5597298906728361
0.156884557509969
0.07876423966832446
0.07464799893128812
-0.03107027499811416
-0.00363165393842236
-0.001557151972282224
-0.03259553853514204
0.1706101896842211
-0.1775160448869265
-0.06008738758021987
0.01940476863383816
-0.1471976084128666
-0.05282663763047088
0.1536796190644237
0.2770426844457515
-0.04043050900543591
0.008774720681728975
-0.2551761026744395
-0.1319572600247803
0.2363502488448394
0.1784602775940569
0.1295721286387143
0.02190481314303532
0.08839947499530854
0.05234322280475679
0.4521801373442327
0.01593741333919729
0.09808036932039685
0.04289382243849068
0.0723838139405778
-0.1152776352770882
-0.2429490753662256
-0.2003650962953842
-0.0196183043327279
-0.2018795242076739
0.274794402473064
)
;

boundaryField
{
    FrontBack
    {
        type            empty;
    }
    Top
    {
        type            calculated;
        value           uniform 0;
    }
    In
    {
        type            calculated;
        value           uniform -1;
    }
    Bottom
    {
        type            calculated;
        value           uniform 0;
    }
    Out
    {
        type            calculated;
        value           nonuniform List<scalar> 10(1.035272063161588 1.06422725183776 1.022841028085599 1.021574649473131 0.9957087892539035 1.01357728209602 1.034585622100118 1.062939280906193 0.8672271154123203 0.8820474165506766);
    }
    circle
    {
        type            calculated;
        value           uniform 0;
    }
}


// ************************************************************************* //
