/*--------------------------------*- C++ -*----------------------------------*\
| =========                 |                                                 |
| \\      /  F ield         | OpenFOAM: The Open Source CFD Toolbox           |
|  \\    /   O peration     | Version:  2412                                  |
|   \\  /    A nd           | Website:  www.openfoam.com                      |
|    \\/     M anipulation  |                                                 |
\*---------------------------------------------------------------------------*/
FoamFile
{
    version     2.0;
    format      ascii;
    arch        "LSB;label=32;scalar=64";
    class       surfaceScalarField;
    location    "1343";
    object      phi;
}
// * * * * * * * * * * * * * * * * * * * * * * * * * * * * * * * * * * * * * //

dimensions      [0 3 -1 0 0 0 0];

oriented        oriented;

internalField   nonuniform List<scalar> 
1171
(
-0.9279217988061623
0.9279217988534547
0.7872635746764732
-1.098744346091796
0.3114807712914014
-0.1949270548085716
-0.7672109880879409
0.9621380428593514
0.0720782055773419
-0.1174045170628728
-0.2117781818303064
0.3291826992572907
-0.7872635816689298
0.06929528180571351
0.7179682998506106
0.810775438747833
-0.1773887765025655
-0.6333866622057384
0.8742382268409854
-1.043476810636861
0.1692385837531653
-0.2847030580305941
-0.0979116622181357
0.3826147198923056
-0.03602040242786932
0.5483560311011556
-0.512335628590183
-0.5063655932042136
0.8286790067710771
-0.3223134135333138
-0.4021075808645249
1.045684714129093
-0.1714464865034319
0.3959251763149701
0.04865118652267199
-0.4445763619584687
1.046408779314748
-0.0007240650386455567
0.4463247580355155
-0.05039957917095753
1.056957181234411
-0.01054839653431112
0.5780980738357558
-0.7730251357507071
-0.724347333296711
0.5571438606184171
0.1672034727439853
0.2203674136695762
-0.7267329998109251
0.5501537387154213
-0.9226152203603618
0.3724614823964568
-1.094185234257094
0.6864253279955072
0.4077599061479114
-0.595350299636498
0.5593298915354812
0.01790625567827817
-0.2565861026668165
0.23867984806858
-0.0243861532282604
-0.5233425822551538
0.5477287354555179
0.3998567957609109
-0.4977684653754539
-0.9187521294171322
0.9414746800453039
-0.02272255063623574
1.067754378216778
-0.01079719435689388
0.9352145917300775
-1.116982276169942
0.1817676844958775
1.067395167665925
0.0003592164122555236
-0.6642873575352048
-0.06005997470445404
1.262069194073751
-0.8644384315319885
-0.397630762545096
0.1486430446009432
-0.1090740647719975
-0.3256631563574268
0.4347372208434932
-0.28571328363788
0.1912773892816284
0.09443589387043627
-0.5833879315505108
-0.5153564120541766
1.01411023692775
-0.07889564370935738
0.009924539445709694
0.8254427411071052
-0.8353672805828014
0.5717958087985719
0.6902733837978839
0.4392819635902055
-0.03060102419655614
0.430457819707695
-0.8077149875189201
-0.1026217416497155
0.9103367292296058
0.5027130163558715
0.2538857343623589
-0.7565987506927934
0.003652056234175852
0.5300028790302326
-0.5336549349318793
-0.4898952497307799
-0.6042899802586312
-0.4229064188264506
-0.6940758568527319
-0.02744382250941368
0.2704004695357758
-0.2429566477913072
-0.9249029195902411
-0.005201418017069422
0.9301043375660151
0.3078462484628497
0.07476846219044635
0.7623121410805934
0.04846330028064871
-0.5330202799230261
-0.06233002242894846
0.04632137875830824
-0.8540363641622339
0.0766118177000555
0.8618496296707997
-0.9384614473742388
-0.3474076925932789
-0.04103132033007444
0.3884390129146835
-0.6824306994694406
-0.2424722222102673
-0.63158507029206
0.7081968908473063
0.6094066441766568
0.2192723689795505
-0.542936658759161
0.9462189344280166
-0.7793861087299144
-0.1668328257183207
0.02125388022705419
-0.0125737614804927
-0.008680118118264539
-0.4029645953844895
-0.09480387032408399
-0.2419605326466071
0.8513671829074909
0.04699906642193609
0.3342680014043287
-0.3812670682128892
-0.4607267406014013
0.9634397595384316
0.6801105392473225
-0.7827322767073487
0.318278069238529
-0.01580630727793761
-0.3024717616023464
0.9306653610864759
-0.930665361099687
-0.7830401438423038
0.1111780727975978
-0.3229562591756757
-0.7500455657661887
0.7599701049349301
-0.09084417290996195
-0.1426873131220606
0.2335314855329041
0.8649410113182064
-0.03949827135893468
1.054464665952159
-0.8005789265225086
0.1861328304300769
-0.3157248218704489
0.1295919915324603
0.8591347927994563
-0.09682265166999163
-0.6117031962819998
-0.03942809819568998
0.6511312944551972
0.1238057476919236
-0.2309598879534903
0.1071541413244254
0.8056176163072747
-0.9830063913720222
-0.4350262642713778
0.3294455265743496
0.105580738074696
0.5320793635743462
-0.5564655129998177
1.022132292795195
-0.4562775925008938
-0.5658547002911457
0.5992258770016792
-0.7192996305555823
0.06662199581283099
0.6526776343939827
0.1025360453859862
0.570455610200359
0.05466463637069192
-0.625120246455792
0.1945120230691441
-0.08333395292871396
-0.492944558591728
0.1455368672968687
0.05037287076795822
-0.8867976862832709
0.8364248155707669
-0.4746913985054647
-0.7134035575173322
0.04911619804981989
0.4364969765632689
-0.00603916096070785
0.2999735359509586
-0.8552744155966827
0.5553008798419167
0.4157239878214732
0.5842760122256564
0.5606067501493781
-0.5142853644996956
-0.3652771322079598
0.03600164713526596
0.3292754825680007
0.6813399162778654
0.2493254449739748
-0.5669285206967135
0.570580575102644
0.1108338233466269
0.8749129023970995
0.01029079832832843
-0.6219939946178433
-0.7492969605692662
0.799669833496766
0.5310275099343708
0.07157608104137206
0.3008669481735827
-0.3724430290688637
-0.1676110311141597
0.4425835286137137
0.08741934362921554
0.8751685228304736
-0.7980082685775999
-0.07716025417444922
0.6355284709611173
0.3106904644925898
-0.430408416974854
0.575464822945542
-0.5038887397409731
0.4171200026148083
0.1330337461657325
-0.04690222790235503
-0.5888341362396818
-0.1386698734204325
0.7275040096467624
-0.1496718020423029
-0.7809935617277274
-0.6110596542538989
0.3605479164761615
0.2505117367832457
0.6222754048314142
-0.6119846051033405
0.2383385291851664
1.011609681792197
0.04285498388759157
-0.7492969583509959
0.2201115989113907
-0.1988577257555962
0.6801105373583978
0.8021492105569826
-0.8021492106030511
0.8376814831763736
-0.8332907034523384
-0.004390779651255086
-0.445366743427651
0.8610907324699547
-0.1476348249497878
-0.3453097361307543
0.7347358355216156
-0.6684990164936724
-0.06623681909198771
-0.7323854573608746
0.1435513211411371
0.1388430841976904
-0.6718633641577499
0.7827322592027397
-0.9503432903695532
-0.3648076144668319
0.287546539607218
0.07726107419392757
0.1458551930364217
-1.009600374872035
0.8637451818573885
0.4806351017020676
-0.04135313818139851
-0.3081539587270063
0.5863827635419555
-0.2782288047092502
-0.7383346079968137
0.8841897985333289
-0.1571107020019567
0.7346765628392675
-0.837226671811401
0.1025501090687183
0.9782029042306785
-0.5415776999559051
-0.436625204317646
0.7552469855090327
-0.06485013520210466
-0.03560041228681878
0.1876730881695906
-0.1520726763477596
-0.7757335766869446
-0.8443317245453404
0.07712072918407739
-0.7500455652633368
0.5141301619680322
-0.5551614848588656
0.09088741379948206
0.7180503608702098
-0.8089377745526216
0.753687722645228
0.1742340962329015
0.5028838890824617
0.4971161108969235
-0.05339082921113192
-0.605797577159858
0.6591884066411389
0.8792139336769405
-0.004045407374619451
-0.7552469854952587
0.7996698335532185
0.1911891781948319
-0.4477752775859259
0.01850115901754927
0.00120718132747732
-0.01970833681202177
0.5894530584987087
-0.4382536212126526
-0.1511994369302342
0.717968303869802
0.01407380799854513
-0.1096551622888502
0.4379079449834192
0.1515451162993309
-0.01349967187676062
-0.00675815379238173
0.02025782504937188
-0.03379839090314497
-0.001802030850291325
0.2438390740166234
-0.2596453667444443
-0.9592599118315636
0.002009301812237817
-0.1595900782895257
-0.1209685405841832
0.09473705524072043
0.7214792324009477
0.7290015935898677
-0.1447255824391062
0.66149333361329
-0.570605921755071
-0.2119054840742054
0.3980383156144481
0.6954796277548828
0.02248867609632636
0.241638718828675
-1.07492941927266
-0.9503432925505618
0.3018070946785158
0.7599701041528533
-0.2088398431549745
0.06615253424340574
-0.7234885346465542
0.9094293433126488
-0.1859408086367135
0.4163298529150394
-0.02789084627129159
0.771574683313541
0.2807003729163846
0.3731313458358986
0.07319339926719952
-0.6586986704644614
0.6586986704455524
0.2147980744792261
0.6955386585702146
-0.05509687690062668
0.3893648805525535
0.3796403485012107
-0.01301771208154025
0.03151886055852252
0.4492241073090284
0.0314109921062669
-0.738334608846553
0.5340948494116421
0.2006409899915031
0.3047702063484816
-0.1170971130411522
-0.6954796274182095
0.1797316287149097
0.7296977139480486
-0.01026294441021023
-0.8136346951535275
0.8238976395441885
0.6963129565373158
-0.7920431028312377
0.09573014632394262
-0.7536877311222173
-0.1506494980356549
0.2116290719349536
-0.0609795747231502
0.07738478342177912
-0.1791844312703576
-0.113112677679148
0.2922971096309274
-0.005965807452136089
-0.007533870188046738
0.7066162306151962
-0.7168791829642097
0.8851759559465543
0.07696208045632098
-0.316903467611399
-0.5172025733464083
0.8341060407713192
0.1037319441033716
-0.1037319421435803
0.3235481942117475
0.4735002392207285
0.6172444972164589
-1.090744736335395
-0.1941154096656963
-0.5856682766007908
0.7797836862781103
0.01351163555053262
0.2200198593042263
0.3769724889804686
-0.2531667278214514
1.013675015351683
-0.5401747724265189
0.6654263735895664
0.9946248596055499
-0.3773803588189731
0.2293376598312099
0.8841897959450588
0.7127433117081869
0.2137481502164612
0.7277265342160589
-0.7809935617775737
0.3413013462821535
-0.2763901966925051
0.2459216597392316
0.03046853637479172
0.8466109292519916
-0.00781764089871374
-0.8387932881703491
-0.7021949210386379
0.7025541403737592
0.5546332593953891
-0.7021949185315693
-0.7127433117099726
0.7025541432359932
-0.03484914857434472
0.9068647969667285
-0.02168884499892065
-0.6813399061287368
0.6123545369793681
0.06898536914737811
0.5387020191064569
0.5368957655900675
-1.075597784692308
0.4909198529223331
0.5227551635879835
0.5430461772326177
0.4590819881347423
-1.002128165314162
0.4966540225416526
0.4979708383128351
0.6123545298088606
-0.525536670359856
-0.4651871710845717
-0.5566521547138318
-0.518384650114306
-0.1191763155752604
-0.01224070791335856
0.01224070707176472
0.5130157313524558
0.5231394695876779
-1.041524119591452
0.574650889640549
-0.2737839417363945
-0.8853989150862888
0.3438212145656876
-0.6330905236795432
0.3906183010501533
0.002590648061113858
-0.8288116634258117
0.8262210153386583
0.4208476290861406
-0.01793596788743905
0.8645468951714165
-0.9484885327943475
-0.8337532365094228
0.05405982006749784
0.7796934163813123
0.565822550783647
-0.4393602958108893
-0.1264622550021524
0.6500903779632219
-0.7289860217517699
0.8866257922694165
-0.8319716859611618
-0.05465410648847848
-0.009975140992749248
-0.7880331244418242
-0.1097651210959522
0.7130992994659204
-0.6033341783610447
-0.9362764784186943
0.9263013377355676
-0.7260742405106555
0.6917187703612869
0.03435547013961265
-0.8110511388329962
0.0390963837267479
0.7719547550250245
0.06175263147740825
0.04197930997371339
0.4330072825214591
0.06186272470468626
-0.851681117079356
0.7898183924857438
-0.6433906446215204
0.589999820155368
0.8895926320307583
0.07044141426668069
-0.9600340462229678
0.0558393932298402
-0.04768137639270536
0.3769568685408229
-0.3814860236333418
0.06576120623760376
0.8422238988673564
-0.8396332467385704
-0.7340890648123735
-0.8129844810334574
0.02495135704050319
-0.1632140468622198
-0.8529501253728525
0.02097844664053602
0.6235241333207376
0.03796919850379394
0.03400014851236392
0.5318224121728007
-0.8070198067370885
0.846116186391855
0.5658546978325267
-0.8467476254619609
-0.8658350654568799
0.04102972818501668
-0.03475043068380865
0.8378961106080149
-0.8031456799697857
-0.02672910026235115
-0.7688394989073261
0.5443446896635634
0.151968264473435
-0.03087630102270882
0.8954231969341367
0.9803611565516278
0.8624782957117404
-0.8414998451999484
0.1476231287937557
-0.1476231272091621
-0.1185575680918126
-0.4813759697269074
0.04201567987303493
0.2704332387877287
0.03137385559285182
0.3872051624389129
0.8686940943005727
0.005420675627800003
-0.0113864942748824
0.6586033246085068
0.3413966753725937
0.7835842521596686
-0.5833879299023691
-0.7780902540329706
-0.8109633269124413
-0.6798315982995516
0.6798315982975045
-0.1678041976671793
-0.1551520664640238
0.6019837738412762
-0.812219720745972
0.2102359468825791
-0.4937852862154701
-0.5690059324616654
0.2781674754201153
-0.9722433314281417
-0.9017963157351926
0.847142218844449
-0.813013968162524
0.837965324365878
0.6487372334459238
0.1342454018863387
-0.7829826353182455
-0.7766078569188776
-0.1460166722699449
0.7242262110255729
-0.5782095387442061
0.03310221832049871
-0.01432457671395722
0.01811072764292339
-0.003786152035591921
-0.3550232527507639
-0.1263527202822046
0.8801512477036975
0.7459802058501621
-0.2464634248386045
-0.499516780696119
0.6195179487992925
0.685358590378579
-0.4705605140490877
-0.0004791411629587504
-0.285234138897165
0.02402401275044804
0.7476551135770931
-0.7716791264409724
-0.3235060988996362
-0.07281006775339416
0.075876543005376
-0.9608114837479665
0.1220181925174244
-0.6779743212882977
0.05178898294355033
0.6408466117555777
-0.692635594726621
-0.7564956893784492
0.0785213680981494
0.5879510856354303
-0.6607611534614121
0.1571165664292302
-0.3363009948423094
-0.7704918483118174
-0.006116008579644503
0.3711954802605346
0.6012112237620857
-0.02574640364342313
0.02193710213862261
-0.02193710139241111
-0.01899887258835862
-0.04957788948051947
-0.2268123195040796
0.02533950072064739
-0.01991879480220442
-0.7325226469003013
0.2792727391252004
0.680504096287226
-0.689309918830916
0.008805822361105326
-0.595731567200099
0.6475205536129696
0.6531380170921708
-0.06518693177777383
-0.6313977737312705
-0.1250979128826917
-1.050437442568676
0.01105759685603121
0.1365655293939377
-0.7084986324597313
-0.741162890246637
-0.7631630245464671
0.3655322608767052
-0.4118993135207377
0.4645338267008776
-0.05263451321332455
-0.6689808122172519
-0.03951782033295546
0.5018335759411616
0.7306815229034936
-0.2339374040226703
0.1129688622987186
0.9669274895365089
0.4462361407979294
0.1341434491856155
-0.5803795899275855
-0.677792563288988
0.00881174889842587
-0.04468366372249698
0.03035910443770954
0.636454043218267
-0.775123915308228
-0.001898469795652064
0.001898470242341119
-0.6011329130918355
0.6482529367829405
-0.04712002367231426
-0.643792412917825
-0.1130726514688761
-0.6715256136683061
0.05555273627537031
0.6036356765094731
-0.1371378526345585
-0.8175422867658794
-0.5614773181615681
0.5654374046765469
-0.003960086997657309
0.6321168656069767
-0.6233110403112841
0.3224000612951194
0.2141659449627006
-0.5365660062525026
-0.1047088474099407
-0.6017960432030516
-0.09083955080331342
-0.1548967742005133
-0.5059245743835588
0.4040935751512878
-0.4988974437119759
0.1268709846445542
0.6782778695383259
-0.8051488542025328
0.5992258770062964
-0.3680314248693063
-0.04386788057606604
0.08198261819214667
-0.5879071907680672
0.5517856965395493
-0.04056810082322818
-0.5112175955550586
-0.3125375479362515
0.3050679582338797
0.007469588684716004
0.4545851179929446
0.1200657736983078
0.05134197272910092
-0.3160518578359014
0.1569667663750457
0.1590850912660084
0.2293004131498196
-0.009188806108752683
-0.293931272618428
-0.3112830258606319
0.3589833437003748
-0.04770032024525279
0.7874445679982802
-0.6264724563278731
-0.01731995640911141
0.4992699154260847
0.2807200949968564
-0.5271835183850765
0.5775066607385828
-0.5775066607394572
-0.2897395664694482
-0.5864462297466211
-0.2955752358809599
-0.5864462295209585
-0.5945017891226557
-0.8385128173237866
0.1700138054068076
-0.5844567829603196
0.8211212488068143
-0.003375784431658598
0.1185838265053943
0.4826273961247877
0.09672260729736373
0.1856558003823457
-0.03640630912316055
-0.1492494922222374
-0.01901936891724004
0.593922985906662
-0.9462002079126596
0.4289976389904574
-0.003196067031304024
0.003195902815509989
1.640120112395308e-07
-0.643396470799435
-0.1317071097487456
-0.46765351339111
0.6017969610894298
-0.5037098953492762
-0.3261422313299908
-0.2617649727670536
-0.2710979018477052
-0.1118945914327661
0.1118945908751855
0.1524945072198317
0.05913456067305472
0.196713393686768
0.4553450266947429
-0.5731689460113911
0.1055154374322066
0.2427255978459634
0.4663251339864226
0.5336748653720693
0.641341798245649
0.08699715068641764
-0.005660000179412641
-0.081337151500101
-0.2769048557407766
-0.5406374309953673
-0.551311705092304
0.1142857794657132
-0.1262264565378504
0.01194067663322166
-0.105705500216438
-0.3858778343297674
-0.04561023525574266
0.6492458952007186
-0.4986753131550671
-0.1447211576730716
-0.3387159981107156
0.2917524916075151
0.1241698368311118
-0.6101237439327013
-0.2042104955804095
-0.2620289397504961
0.002383553020035375
-0.4222469808009368
0.323146280753775
0.09910069978137974
-0.0946161270894577
0.2916446410082997
-0.8959346187279241
-0.4579167750618101
0.6302265292483987
-0.7730149238963951
0.6683060764443362
0.3416835063045163
-0.1250276090737749
0.2249427268289836
-0.09991511701690735
0.02420951769544845
-0.5862905047903956
0.02920310291070543
0.5570874021051105
-0.9006953220988394
0.5471520034987886
-0.6657095716117574
-0.09905798466193036
0.1095957423623782
-0.1095957398552678
-0.3165309953206328
0.3629421529953815
0.01401471921343664
0.0309270129057111
0.0560701575283132
0.5052811056435352
0.6617470905937733
-0.738907342398255
0.03213420109184878
0.02330381762764641
-0.001366703576644461
-0.00719840655084229
0.007198405826276628
-0.4168155107380319
0.5368812874728474
0.01535834028371903
-0.01535834039374758
-0.792261265337579
-0.06089990539061559
0.1226525442406935
-0.4565492968585414
0.5620647375960574
0.4516653538587974
-0.4987853796461696
0.1499713239968885
-0.1499713227662636
0.03311033023745791
-0.001591476105200548
-0.04200909369893745
-0.9763157498526738
0.5396905440708952
-0.469450016257288
0.04197931272878892
0.5145585023334507
0.03105222133029586
-0.5456107234895033
-0.6160814021566791
0.117406088597812
-0.3295020990642003
0.01343604630578562
0.3160660535543636
-0.1548780639017528
-0.07905932597184916
-0.5408476996842515
-0.0454428094725644
0.1365655277465309
-0.04034935224810164
0.03845088819230465
0.08097107962340208
-0.08097108245426482
-0.5356770130561564
0.4879767032139373
-0.4145305531344575
0.161335957910639
0.6222482942073261
-0.09775219111811728
-0.00382637763662015
0.003826377355256667
0.5329471445086392
-0.07830133511573419
0.005863801014392541
0.02696978559365579
0.03478089495335757
0.6847679317448117
-0.7630692667634149
-0.6544360474111033
0.6371160892327821
-0.1065078840180459
0.3131069957357918
0.7461127754085757
-0.01899887427955787
-0.2670645406949823
0.1499674184423895
-0.7446493393874338
0.484298470698749
-0.4249790139240677
-0.1015229046229995
0.003496988263565837
-0.01432782376095078
0.01967947936384718
0.4110513380941199
-0.1216041672569905
-0.3896134267561638
0.6288078055540599
0.0194391426974926
0.01068601164661085
-0.0106860115650949
-0.3540167203424515
-0.08033198844496674
-0.560508729611234
0.5571329453283523
-0.2381402879274596
0.4647785895057021
-0.1511652197011852
0.7292632902971836
0.672444357322095
-0.04034935192132781
-0.6161906361190947
0.5627891948130966
0.2890705020792294
-0.2862754233272977
-0.002795079501721459
0.5424999596434185
0.09338537115835291
-0.03901743610362014
0.1965434943203879
-0.1575260586645093
0.1199885177026399
-0.1199885202463723
-0.8587455002852792
0.002348198326069334
-0.1133794455327802
0.1403492322591829
-0.1318783516266603
0.1318783507995836
0.02330381241432133
-0.02282523986675411
0.6703946574344443
0.05930305604003488
-0.3229785137892383
-0.0628993208286955
-0.4712223768029115
-0.04964549640422293
-0.1515760927510808
0.1515760915046947
-0.0482268232980476
0.1433654873207893
-0.1433654862812462
0.1364628608965122
-0.1364628627718337
-0.3157467303481213
-0.11466168667762
0.2264339713181695
0.103011555733499
0.03484786749778473
-0.8211119063317545
-0.1980377513589782
0.1702179368790421
0.02097124855197549
-0.2651304240990781
0.1258656724646829
-0.1258656715551802
-0.4141083465604583
-0.08478909949670639
0.2363288168576183
0.002351035849520336
0.04062172681211922
-0.5433550687114481
0.5782042172964261
-0.02982652162439677
-0.01840030283709918
-0.02827088849614339
0.02667942438966631
0.006605852049756241
-0.1844271946113821
0.1778213425516995
-0.1084672268537017
-0.2278337682160328
-0.144697704344546
0.1446977032563693
0.07285213378411622
-0.07285213429266893
-0.01934368948061823
-0.108635346295898
0.1279790364421666
0.2413528989733796
-0.1829455558367831
-0.02834805864980553
0.02698136231753259
-0.1378927936786519
0.625869495974948
-0.03904244855866566
0.4241719387014117
-0.04305005508663903
0.06330789378584308
-0.1533048753613915
0.1533048738019853
-0.6365064749187291
0.3087159936196007
-0.07937833321151
-0.2345218605972891
0.003561976782129697
-0.1213732340786047
0.1619949600245352
0.1955082403932897
0.09678887436386883
0.09645386909647952
-0.06167297407340463
0.07269910792490136
0.04158667135448601
0.06393362451035323
0.1062843085533986
-0.09630728942113174
0.2092761300296705
0.01258447519832289
-0.1162260907529883
-0.1005307377096372
0.09740561308008386
0.003125125850368107
0.01261780525057739
-0.0236109069320465
0.03776442172014098
-0.0377644217948769
0.07517026118944049
-0.05490575183989577
0.05490575155223164
-0.2245192572436625
-0.05291819649047325
0.01147666963379138
-0.1030681291670383
0.01647434664290932
0.1084331067673378
-0.1084331061736648
0.294608941890499
-0.271437250868337
0.1629700294652605
-0.05092770159554538
-0.2205095490953409
-0.01741979091989363
0.0174197912560431
0.3674340666194738
0.2852435770045035
-0.5276522131662791
-0.09398727279699974
-0.03223918540258753
0.5287700315287911
0.2130820265371442
-0.1702756672540786
-0.3802918164648355
0.07647190941029906
-0.1476696279105022
0.1872073821154977
-0.0395377545108288
-0.06684642554946472
0.0668464259408309
0.8225846848186044
-0.5606299313712614
-0.005470998841602256
0.01808880352109535
-0.01998376609979599
-0.2868591721112222
-0.01749981507089912
-0.01281934962448496
-0.1318852154988685
-0.5720834188769425
0.5560114746634166
-0.5694273273297255
-0.006878392294533921
0.1030115807497457
-0.00172877611941722
0.01684200841287507
-0.167653394589389
-0.3364627506766911
0.2333946216396169
-0.05443139667097769
0.0350877088778582
0.1317775054222098
0.1732904531056368
0.3375596655434372
0.2764970116256955
-0.278225787206352
-0.06207984725299467
-0.1550816681539315
-0.2210858083160692
0.07477602603197309
-0.01084240297283666
0.2139607025137462
-0.1971186936490094
-0.08629317948335112
0.1589922851157927
-0.3552613805304377
0.2084537584103619
-0.1919794117280177
0.08958390137260935
-0.4791973312606834
0.1743880321509232
0.1700820437884281
-0.2563752158528469
0.0728429687415703
-0.1944574239800753
0.1769576085083346
0.01743256389664044
0.1415597227717998
-0.03954742523214236
0.06601925297812683
0.4669278910845064
0.02034463022975627
-0.07940436858155757
0.05466706499344722
0.1260214133633941
-0.2606235616711423
-0.2308820196590675
0.5597281763586587
0.1576120137901841
0.07871680217758287
0.07531378653878903
-0.03092004394864319
-0.01147501574071253
0.008679931799240941
-0.03277813141342047
0.1710716331834614
-0.1779500250369973
-0.05972488662099622
0.02151036215274499
-0.146901292896344
-0.05289769454071913
0.1495512576890115
0.2770720713115858
-0.0386083101416314
0.01520440845444755
-0.2557246035799943
-0.1319775260672296
0.2358432511844825
0.1788566099719818
0.1298593858000596
0.02198129623280496
0.08893659232838459
0.0522675344016232
0.4530135712174461
0.01570959158036046
0.09729012445319518
0.04362053140695987
0.0717866092142506
-0.1154071417999646
-0.2424086384910628
-0.2008379006164208
-0.01967164605248701
-0.2021252627658108
0.2753962542183291
)
;

boundaryField
{
    FrontBack
    {
        type            empty;
    }
    Top
    {
        type            calculated;
        value           uniform 0;
    }
    In
    {
        type            calculated;
        value           uniform -1;
    }
    Bottom
    {
        type            calculated;
        value           uniform 0;
    }
    Out
    {
        type            calculated;
        value           nonuniform List<scalar> 10(1.033966029981456 1.064238689927702 1.021839325803082 1.019409185047997 0.9959777550546224 1.016355488346512 1.036155200679998 1.062791218686888 0.8672462227188619 0.8820214656074865);
    }
    circle
    {
        type            calculated;
        value           uniform 0;
    }
}


// ************************************************************************* //
