/*--------------------------------*- C++ -*----------------------------------*\
| =========                 |                                                 |
| \\      /  F ield         | OpenFOAM: The Open Source CFD Toolbox           |
|  \\    /   O peration     | Version:  2412                                  |
|   \\  /    A nd           | Website:  www.openfoam.com                      |
|    \\/     M anipulation  |                                                 |
\*---------------------------------------------------------------------------*/
FoamFile
{
    version     2.0;
    format      ascii;
    arch        "LSB;label=32;scalar=64";
    class       volVectorField;
    location    "0.2";
    object      cellDisplacement;
}
// * * * * * * * * * * * * * * * * * * * * * * * * * * * * * * * * * * * * * //

dimensions      [0 1 0 0 0 0 0];

internalField   nonuniform List<vector> 
1024
(
(0.00103811 -0.00109233 0)
(0.00191523 -0.00188465 0)
(0.00278901 -0.00242696 0)
(0.00374753 -0.00272099 0)
(0.00466198 -0.00267569 0)
(0.00554114 -0.00232056 0)
(0.00633897 -0.00165375 0)
(0.00689905 -0.000725984 0)
(0.00705858 0.000346169 0)
(0.00678078 0.00138744 0)
(0.00612179 0.00220328 0)
(0.00520824 0.00268087 0)
(0.00418661 0.00278234 0)
(0.00307736 0.00247209 0)
(0.00207767 0.0019083 0)
(0.00105684 0.00105072 0)
(0.0043766 -0.0045116 0)
(0.00688241 -0.0065204 0)
(0.00940815 -0.0077859 0)
(0.0119238 -0.0082207 0)
(0.0145819 -0.00789919 0)
(0.0170253 -0.0066872 0)
(0.0189604 -0.00462385 0)
(0.0203955 -0.00195225 0)
(0.0207761 0.00106176 0)
(0.0200409 0.00398476 0)
(0.0183095 0.00633708 0)
(0.0158991 0.00783672 0)
(0.0130873 0.00831458 0)
(0.0102152 0.00786057 0)
(0.00731281 0.0064775 0)
(0.00452992 0.00439595 0)
(0.00885003 -0.00899483 0)
(0.0127173 -0.0117253 0)
(0.0165842 -0.0132733 0)
(0.0206348 -0.0136657 0)
(0.0246119 -0.0127754 0)
(0.0282324 -0.0105991 0)
(0.0312388 -0.00722804 0)
(0.0332557 -0.00295353 0)
(0.0337554 0.00178317 0)
(0.0326306 0.00636206 0)
(0.030059 0.0101248 0)
(0.0264551 0.012645 0)
(0.0222748 0.0137271 0)
(0.017812 0.0133146 0)
(0.0134762 0.0116595 0)
(0.00916463 0.00878111 0)
(0.0142654 -0.0143297 0)
(0.0193094 -0.0173995 0)
(0.0244299 -0.0189523 0)
(0.0295861 -0.0189282 0)
(0.0347434 -0.0173589 0)
(0.0393846 -0.0141647 0)
(0.0430417 -0.0094905 0)
(0.0454426 -0.00375269 0)
(0.0459863 0.00251098 0)
(0.0445359 0.00855374 0)
(0.0413199 0.0136095 0)
(0.0368079 0.0171566 0)
(0.0314966 0.0189167 0)
(0.0259329 0.0189372 0)
(0.0203055 0.0172398 0)
(0.0147866 0.0140327 0)
(0.0205736 -0.0204379 0)
(0.0265763 -0.0234385 0)
(0.0326454 -0.0246407 0)
(0.0388895 -0.0240841 0)
(0.0448867 -0.0216395 0)
(0.0502269 -0.01737 0)
(0.0544924 -0.0114725 0)
(0.0571239 -0.00438085 0)
(0.0576481 0.00325987 0)
(0.055924 0.0106216 0)
(0.0522067 0.0168789 0)
(0.0469872 0.0214374 0)
(0.0408769 0.0240342 0)
(0.0343046 0.0245598 0)
(0.0277775 0.0232285 0)
(0.0212776 0.0200621 0)
(0.0275803 -0.0271124 0)
(0.0343829 -0.029738 0)
(0.0413461 -0.0303962 0)
(0.0482918 -0.0290266 0)
(0.0550217 -0.0256513 0)
(0.0609587 -0.0202893 0)
(0.0655116 -0.0131821 0)
(0.0682676 -0.00484284 0)
(0.0687309 0.00403671 0)
(0.066789 0.012594 0)
(0.0626928 0.0199667 0)
(0.0569726 0.0255413 0)
(0.0501931 0.0289834 0)
(0.0429998 0.0302974 0)
(0.0356673 0.0294671 0)
(0.0284333 0.0266831 0)
(0.0352361 -0.0342765 0)
(0.0426878 -0.0362253 0)
(0.0502604 -0.0360649 0)
(0.0579101 -0.0338152 0)
(0.0651088 -0.0293831 0)
(0.071371 -0.022899 0)
(0.0761939 -0.0146521 0)
(0.0789841 -0.00514723 0)
(0.0793599 0.00486438 0)
(0.0772302 0.0145161 0)
(0.0728589 0.0229387 0)
(0.0667575 0.0295001 0)
(0.0595725 0.033908 0)
(0.0517831 0.0360107 0)
(0.0439442 0.0359748 0)
(0.036155 0.0338484 0)
(0.0433924 -0.0417491 0)
(0.0513584 -0.0427954 0)
(0.0595214 -0.0416879 0)
(0.0675442 -0.0383587 0)
(0.0751185 -0.0328362 0)
(0.0816451 -0.0252376 0)
(0.0865031 -0.0158692 0)
(0.0892555 -0.0052888 0)
(0.0895275 0.00575896 0)
(0.0872484 0.0164105 0)
(0.0826876 0.0258229 0)
(0.0763572 0.0333731 0)
(0.0688215 0.0387193 0)
(0.0607357 0.0418271 0)
(0.0524403 0.0426505 0)
(0.0442328 0.041381 0)
(0.0520348 -0.0494803 0)
(0.0604276 -0.0494119 0)
(0.0689124 -0.0471399 0)
(0.0773162 -0.0426756 0)
(0.085061 -0.0359907 0)
(0.0916215 -0.0272638 0)
(0.0965001 -0.0168335 0)
(0.0991528 -0.00524539 0)
(0.0992997 0.00674843 0)
(0.0969024 0.0183224 0)
(0.0922251 0.0286641 0)
(0.0857382 0.0371715 0)
(0.0780636 0.0435578 0)
(0.0696679 0.0476339 0)
(0.0611097 0.049523 0)
(0.0526274 0.0493182 0)
(0.0610691 -0.0573199 0)
(0.0697627 -0.055945 0)
(0.0785737 -0.0524112 0)
(0.0870774 -0.0466783 0)
(0.0948931 -0.0388001 0)
(0.101451 -0.0289593 0)
(0.106166 -0.0175068 0)
(0.108667 -0.00499374 0)
(0.108675 0.00785942 0)
(0.106196 0.0202731 0)
(0.101459 0.0314925 0)
(0.0949415 0.0409601 0)
(0.0871329 0.0483362 0)
(0.0786312 0.0535624 0)
(0.0698909 0.0565734 0)
(0.0611599 0.0575729 0)
(0.0704827 -0.0651664 0)
(0.0794457 -0.0623344 0)
(0.088362 -0.0573575 0)
(0.096943 -0.0503055 0)
(0.104665 -0.0412004 0)
(0.111004 -0.0302624 0)
(0.115529 -0.0178476 0)
(0.117814 -0.00448473 0)
(0.117677 0.00913081 0)
(0.115136 0.0223061 0)
(0.110409 0.0343444 0)
(0.103887 0.0447303 0)
(0.0961076 0.0531927 0)
(0.087565 0.0595458 0)
(0.0786798 0.063861 0)
(0.0698259 0.0661796 0)
(0.0802866 -0.0728854 0)
(0.0894145 -0.068378 0)
(0.0984137 -0.0618852 0)
(0.106849 -0.0534164 0)
(0.114317 -0.0430688 0)
(0.120372 -0.0310804 0)
(0.124554 -0.0177749 0)
(0.126578 -0.00367639 0)
(0.126282 0.0106148 0)
(0.12371 0.024455 0)
(0.119014 0.0372556 0)
(0.112616 0.0485504 0)
(0.104918 0.0580677 0)
(0.0963903 0.0656852 0)
(0.0874733 0.0713372 0)
(0.0784094 0.0751477 0)
(0.0904564 -0.080218 0)
(0.0997305 -0.0739117 0)
(0.10862 -0.0657527 0)
(0.11681 -0.0557934 0)
(0.123876 -0.0442568 0)
(0.12945 -0.0312472 0)
(0.133209 -0.0171933 0)
(0.134904 -0.00246374 0)
(0.134442 0.012354 0)
(0.131822 0.0267732 0)
(0.127254 0.0402346 0)
(0.121006 0.0524018 0)
(0.113481 0.0630059 0)
(0.105043 0.0719053 0)
(0.0960517 0.0790269 0)
(0.0867795 0.0844109 0)
(0.101 -0.0868519 0)
(0.110289 -0.0785574 0)
(0.118996 -0.0685853 0)
(0.126717 -0.0572182 0)
(0.133195 -0.0444441 0)
(0.138161 -0.030598 0)
(0.141373 -0.0158937 0)
(0.142677 -0.000751446 0)
(0.141992 0.0144564 0)
(0.139363 0.0292475 0)
(0.134922 0.0432823 0)
(0.128909 0.0562538 0)
(0.121594 0.0679275 0)
(0.113255 0.0781546 0)
(0.104194 0.0868208 0)
(0.0946284 0.0939383 0)
(0.111776 -0.0921825 0)
(0.121018 -0.0816701 0)
(0.12925 -0.0699703 0)
(0.136287 -0.0571579 0)
(0.141971 -0.0433794 0)
(0.146145 -0.0288167 0)
(0.148681 -0.0137538 0)
(0.149496 0.00157032 0)
(0.14856 0.016868 0)
(0.145911 0.0318641 0)
(0.141638 0.0463081 0)
(0.135883 0.0599642 0)
(0.128787 0.0726651 0)
(0.120572 0.0842187 0)
(0.111387 0.0945427 0)
(0.101462 0.103527 0)
(0.12207 -0.0945324 0)
(0.130748 -0.0821123 0)
(0.138166 -0.0689014 0)
(0.144255 -0.0550269 0)
(0.148954 -0.0406225 0)
(0.152218 -0.0258269 0)
(0.154017 -0.0107826 0)
(0.154332 0.00436561 0)
(0.153161 0.0194717 0)
(0.150515 0.0343904 0)
(0.146419 0.0489778 0)
(0.140913 0.0630935 0)
(0.134051 0.0766016 0)
(0.125897 0.089372 0)
(0.116531 0.101282 0)
(0.106042 0.112216 0)
(0.00106423 0.00101473 0)
(0.00191465 0.00195921 0)
(0.00246265 0.00284819 0)
(0.00277725 0.00383116 0)
(0.00274747 0.00478546 0)
(0.0023533 0.00560284 0)
(0.00166626 0.00631268 0)
(0.000716367 0.00683104 0)
(-0.000370391 0.00699627 0)
(-0.00139588 0.0066987 0)
(-0.00216461 0.00593304 0)
(-0.00260643 0.0049886 0)
(-0.00272127 0.0040039 0)
(-0.00244227 0.00295072 0)
(-0.00189534 0.00198608 0)
(-0.00104241 0.000995145 0)
(0.00452813 0.0044133 0)
(0.00653593 0.00692739 0)
(0.00789269 0.00957681 0)
(0.00839723 0.0122032 0)
(0.00802119 0.0147543 0)
(0.00676485 0.0171312 0)
(0.00468051 0.0190745 0)
(0.00192372 0.0202234 0)
(-0.00112694 0.0206184 0)
(-0.00399221 0.0197693 0)
(-0.00628162 0.0179383 0)
(-0.00771925 0.0154657 0)
(-0.00816394 0.0126091 0)
(-0.0077727 0.00983816 0)
(-0.00643801 0.00703225 0)
(-0.00436971 0.00431957 0)
(0.00897643 0.00885454 0)
(0.0118167 0.0128621 0)
(0.0134446 0.0168486 0)
(0.0138807 0.0209493 0)
(0.0129709 0.0249125 0)
(0.0107163 0.0284357 0)
(0.00727799 0.0312601 0)
(0.00290288 0.0330681 0)
(-0.00187945 0.0335211 0)
(-0.00640085 0.0322747 0)
(-0.0100508 0.029501 0)
(-0.0124587 0.0257707 0)
(-0.013537 0.0216035 0)
(-0.0131876 0.017237 0)
(-0.0115867 0.0130001 0)
(-0.00873289 0.00878972 0)
(0.0143982 0.0143724 0)
(0.0175006 0.019468 0)
(0.0191549 0.0247272 0)
(0.0191868 0.0299701 0)
(0.0175515 0.0350082 0)
(0.0142864 0.0395675 0)
(0.00953996 0.043149 0)
(0.00367752 0.0452598 0)
(-0.00263661 0.0457085 0)
(-0.00860663 0.0440842 0)
(-0.0135537 0.0407104 0)
(-0.0169997 0.0360847 0)
(-0.0187138 0.030702 0)
(-0.0187814 0.0251982 0)
(-0.0171364 0.0196566 0)
(-0.0139573 0.0142466 0)
(0.0205021 0.0206711 0)
(0.023606 0.0268099 0)
(0.0248686 0.0329681 0)
(0.0243231 0.0392168 0)
(0.0218483 0.0452025 0)
(0.0174898 0.0504532 0)
(0.0114894 0.0545148 0)
(0.00427163 0.0569643 0)
(-0.00341297 0.0573438 0)
(-0.010713 0.0554643 0)
(-0.0168375 0.0515385 0)
(-0.0212695 0.046168 0)
(-0.0238383 0.0400185 0)
(-0.0243877 0.0334574 0)
(-0.0230925 0.0269825 0)
(-0.019953 0.0205809 0)
(0.0272645 0.0277743 0)
(0.0299079 0.0346035 0)
(0.0306179 0.0416438 0)
(0.0292641 0.0486349 0)
(0.0258227 0.0552724 0)
(0.0203752 0.0611304 0)
(0.0131596 0.0656033 0)
(0.00469908 0.0681223 0)
(-0.00422169 0.0684296 0)
(-0.0126988 0.0662872 0)
(-0.0199541 0.0620403 0)
(-0.0254221 0.0561969 0)
(-0.0287992 0.0493043 0)
(-0.0301131 0.0420815 0)
(-0.029305 0.0347664 0)
(-0.0265393 0.0276059 0)
(0.0344224 0.0354046 0)
(0.0364289 0.0429392 0)
(0.0362796 0.0505446 0)
(0.0340021 0.0581737 0)
(0.029525 0.0653746 0)
(0.0229437 0.0715709 0)
(0.0145752 0.0762202 0)
(0.00495844 0.0788615 0)
(-0.00507735 0.079058 0)
(-0.0146561 0.0767674 0)
(-0.0229506 0.0722184 0)
(-0.029386 0.0659631 0)
(-0.0337416 0.0586934 0)
(-0.035823 0.0508377 0)
(-0.0357872 0.0429814 0)
(-0.0336679 0.0352297 0)
(0.0419512 0.0436097 0)
(0.0429823 0.0515646 0)
(0.0418696 0.0597589 0)
(0.038514 0.0678198 0)
(0.0329199 0.0753261 0)
(0.0252166 0.0817886 0)
(0.0157294 0.0865806 0)
(0.00505668 0.0891464 0)
(-0.00599947 0.0892454 0)
(-0.0165618 0.0867857 0)
(-0.0258569 0.0820907 0)
(-0.0333066 0.0756457 0)
(-0.0385676 0.0679745 0)
(-0.0416341 0.0598021 0)
(-0.0424433 0.05146 0)
(-0.0411664 0.0432528 0)
(0.0496432 0.0521834 0)
(0.0495843 0.0606093 0)
(0.0472863 0.0691251 0)
(0.0427671 0.0775128 0)
(0.0360129 0.0852705 0)
(0.0271774 0.0917912 0)
(0.0166403 0.0965275 0)
(0.00497617 0.0990546 0)
(-0.00700213 0.0990329 0)
(-0.0184988 0.0965059 0)
(-0.0287238 0.0916855 0)
(-0.03711 0.0850606 0)
(-0.0434231 0.077277 0)
(-0.0474388 0.0687802 0)
(-0.0492921 0.0601538 0)
(-0.0490682 0.0516405 0)
(0.0574897 0.0612155 0)
(0.0560799 0.069912 0)
(0.0525086 0.0787383 0)
(0.046718 0.0872923 0)
(0.0387589 0.095069 0)
(0.0288163 0.101563 0)
(0.0172659 0.106222 0)
(0.00470843 0.108572 0)
(-0.00812382 0.108448 0)
(-0.0204447 0.105822 0)
(-0.0315602 0.100978 0)
(-0.0409339 0.0943581 0)
(-0.04821 0.0864179 0)
(-0.0533564 0.0778125 0)
(-0.0563185 0.068993 0)
(-0.0572848 0.0602172 0)
(0.0652954 0.0706285 0)
(0.0624374 0.0795858 0)
(0.0574196 0.0885337 0)
(0.0502858 0.0971044 0)
(0.0411113 0.104821 0)
(0.0300745 0.111133 0)
(0.0175942 0.115542 0)
(0.004207 0.11773 0)
(-0.00937098 0.11747 0)
(-0.0224821 0.114833 0)
(-0.0344244 0.110002 0)
(-0.0446953 0.103368 0)
(-0.0530738 0.0954714 0)
(-0.0593291 0.0868386 0)
(-0.0635772 0.0778723 0)
(-0.065855 0.0689749 0)
(0.0729808 0.0804489 0)
(0.0684606 0.0895614 0)
(0.0618915 0.0985571 0)
(0.0533737 0.107009 0)
(0.0429502 0.114458 0)
(0.030875 0.120445 0)
(0.0175382 0.124572 0)
(0.00343724 0.126498 0)
(-0.0108274 0.126116 0)
(-0.0245999 0.123438 0)
(-0.0373103 0.118666 0)
(-0.0485228 0.112165 0)
(-0.057927 0.104387 0)
(-0.0654673 0.0957554 0)
(-0.0710292 0.0867987 0)
(-0.0748056 0.0776798 0)
(0.0802841 0.0906375 0)
(0.0739442 0.0998769 0)
(0.0657411 0.108772 0)
(0.0557576 0.116935 0)
(0.0441069 0.123981 0)
(0.0310817 0.12952 0)
(0.0169916 0.13321 0)
(0.00227917 0.134838 0)
(-0.0125077 0.134292 0)
(-0.0268897 0.131608 0)
(-0.0402555 0.126974 0)
(-0.0523506 0.12065 0)
(-0.0628689 0.113045 0)
(-0.0716801 0.104562 0)
(-0.0787464 0.0955134 0)
(-0.0840575 0.0862409 0)
(0.0868762 0.101168 0)
(0.0785481 0.110443 0)
(0.0686032 0.119104 0)
(0.0571418 0.126818 0)
(0.0443581 0.133271 0)
(0.0304679 0.138197 0)
(0.0157676 0.14137 0)
(0.000637911 0.142625 0)
(-0.0145644 0.14189 0)
(-0.0292895 0.139224 0)
(-0.0432967 0.134723 0)
(-0.0561795 0.128684 0)
(-0.0678245 0.121302 0)
(-0.0779716 0.112953 0)
(-0.0866055 0.103847 0)
(-0.093654 0.0943095 0)
(0.0921652 0.111888 0)
(0.0816846 0.121092 0)
(0.0699524 0.129311 0)
(0.057134 0.136331 0)
(0.043334 0.141999 0)
(0.0287655 0.146158 0)
(0.0137043 0.148676 0)
(-0.00161951 0.149471 0)
(-0.0168991 0.148519 0)
(-0.0318863 0.145846 0)
(-0.0462909 0.141568 0)
(-0.0599433 0.135775 0)
(-0.072594 0.12869 0)
(-0.0841547 0.120424 0)
(-0.0944204 0.111278 0)
(-0.103407 0.101314 0)
(0.0945324 0.12207 0)
(0.0821123 0.130748 0)
(0.0689014 0.138166 0)
(0.0550269 0.144255 0)
(0.0406225 0.148954 0)
(0.0258269 0.152218 0)
(0.0107826 0.154017 0)
(-0.00436561 0.154332 0)
(-0.0194717 0.153161 0)
(-0.0343904 0.150515 0)
(-0.0489778 0.146419 0)
(-0.0630935 0.140913 0)
(-0.0766016 0.134051 0)
(-0.089372 0.125897 0)
(-0.101282 0.116531 0)
(-0.112216 0.106042 0)
(-0.00100573 0.00101097 0)
(-0.00194513 0.00183739 0)
(-0.00281423 0.00236422 0)
(-0.00377193 0.00265872 0)
(-0.00467791 0.00262023 0)
(-0.00554884 0.00227436 0)
(-0.00634026 0.00161739 0)
(-0.00689636 0.000697655 0)
(-0.00705471 -0.000368158 0)
(-0.0067768 -0.00140518 0)
(-0.0061175 -0.00221843 0)
(-0.00520339 -0.00269386 0)
(-0.00418161 -0.00279279 0)
(-0.00307361 -0.00247948 0)
(-0.00207462 -0.00191245 0)
(-0.00105447 -0.00105229 0)
(-0.00438524 0.00432925 0)
(-0.00688402 0.00629133 0)
(-0.00947223 0.00758862 0)
(-0.0119884 0.00804272 0)
(-0.0146219 0.0077408 0)
(-0.0170416 0.00655739 0)
(-0.0189628 0.00452304 0)
(-0.0203878 0.0018737 0)
(-0.0207655 -0.00112313 0)
(-0.02003 -0.00403467 0)
(-0.0182979 -0.00638001 0)
(-0.0158861 -0.00787406 0)
(-0.0130743 -0.00834579 0)
(-0.0102034 -0.00788423 0)
(-0.00730395 -0.00649297 0)
(-0.00452306 -0.00440334 0)
(-0.00880729 0.00862366 0)
(-0.0127778 0.0113919 0)
(-0.0166743 0.0129546 0)
(-0.0207211 0.0133789 0)
(-0.0246653 0.01253 0)
(-0.0282526 0.0104007 0)
(-0.0312369 0.00707394 0)
(-0.0332414 0.00283458 0)
(-0.033738 -0.00187633 0)
(-0.0326133 -0.00643839 0)
(-0.030041 -0.0101909 0)
(-0.0264355 -0.0127031 0)
(-0.0222549 -0.0137768 0)
(-0.0177942 -0.0133544 0)
(-0.0134613 -0.0116875 0)
(-0.00915366 -0.0087966 0)
(-0.014292 0.0138784 0)
(-0.0193428 0.0169107 0)
(-0.0245264 0.0185204 0)
(-0.0296802 0.018552 0)
(-0.0347984 0.0170414 0)
(-0.0394006 0.013912 0)
(-0.0430331 0.00929602 0)
(-0.0454214 0.00360342 0)
(-0.0459625 -0.00262806 0)
(-0.0445131 -0.00865029 0)
(-0.0412967 -0.0136935 0)
(-0.0367833 -0.0172313 0)
(-0.0314718 -0.0189821 0)
(-0.0259098 -0.0189915 0)
(-0.0202859 -0.0172807 0)
(-0.0147722 -0.0140582 0)
(-0.020556 0.0198283 0)
(-0.0266459 0.0228739 0)
(-0.0327346 0.0241188 0)
(-0.0389702 0.0236316 0)
(-0.0449325 0.0212687 0)
(-0.0502339 0.0170795 0)
(-0.0544741 0.0112513 0)
(-0.0570947 0.00421258 0)
(-0.0576182 -0.00339212 0)
(-0.0558963 -0.0107315 0)
(-0.0521794 -0.0169752 0)
(-0.0469589 -0.021524 0)
(-0.0408486 -0.0241114 0)
(-0.0342779 -0.0246262 0)
(-0.0277545 -0.0232812 0)
(-0.0212606 -0.0200982 0)
(-0.0276173 0.0264568 0)
(-0.0344077 0.0290699 0)
(-0.0414058 0.0298043 0)
(-0.0483489 0.0285236 0)
(-0.0550471 0.0252436 0)
(-0.0609509 0.0199765 0)
(-0.0654822 0.0129476 0)
(-0.0682305 0.00466576 0)
(-0.0686955 -0.00417629 0)
(-0.0667572 -0.0127108 0)
(-0.0626624 -0.02007 0)
(-0.0569419 -0.025635 0)
(-0.0501626 -0.0290685 0)
(-0.042971 -0.0303725 0)
(-0.0356422 -0.0295298 0)
(-0.0284149 -0.0267296 0)
(-0.0352102 0.0335174 0)
(-0.0427096 0.035529 0)
(-0.0502815 0.0354335 0)
(-0.0579247 0.0332803 0)
(-0.0651068 0.028959 0)
(-0.0713452 0.0225798 0)
(-0.0761525 0.0144181 0)
(-0.0789396 0.00497226 0)
(-0.07932 -0.00500271 0)
(-0.0771954 -0.0146331 0)
(-0.0728264 -0.0230432 0)
(-0.0667255 -0.029596 0)
(-0.0595413 -0.0339964 0)
(-0.0517536 -0.036091 0)
(-0.0439187 -0.0360443 0)
(-0.0361362 -0.0339034 0)
(-0.0433725 0.040993 0)
(-0.0513049 0.0420623 0)
(-0.0594824 0.0410447 0)
(-0.0675142 0.0378207 0)
(-0.0750826 0.0324163 0)
(-0.0815984 0.0249309 0)
(-0.08645 0.0156483 0)
(-0.0892047 0.00512509 0)
(-0.0894841 -0.00588902 0)
(-0.0872117 -0.0165219 0)
(-0.0826542 -0.0259235 0)
(-0.0763251 -0.0334664 0)
(-0.0687905 -0.0388066 0)
(-0.060707 -0.041908 0)
(-0.0524154 -0.042723 0)
(-0.0442148 -0.0414417 0)
(-0.0519105 0.0486807 0)
(-0.0603093 0.048691 0)
(-0.0688006 0.0465065 0)
(-0.0772273 0.0421591 0)
(-0.0849892 0.0355982 0)
(-0.0915543 0.0269844 0)
(-0.0964366 0.0166386 0)
(-0.0990976 0.00510177 0)
(-0.0992547 -0.00686372 0)
(-0.0968654 -0.0184226 0)
(-0.0921922 -0.028756 0)
(-0.0857071 -0.0372578 0)
(-0.0780343 -0.0436396 0)
(-0.0696406 -0.0477111 0)
(-0.0610869 -0.0495941 0)
(-0.0526108 -0.049381 0)
(-0.0609019 0.0565704 0)
(-0.0695675 0.0552501 0)
(-0.0783934 0.0518246 0)
(-0.0869378 0.0462091 0)
(-0.0947861 0.0384574 0)
(-0.101365 0.0287247 0)
(-0.106095 0.0173466 0)
(-0.10861 0.0048763 0)
(-0.108631 -0.0079552 0)
(-0.10616 -0.0203583 0)
(-0.101428 -0.0315719 0)
(-0.0949128 -0.0410357 0)
(-0.0871057 -0.0484087 0)
(-0.078607 -0.0536317 0)
(-0.0698705 -0.0566393 0)
(-0.061146 -0.057633 0)
(-0.0702773 0.0644648 0)
(-0.0791994 0.0617205 0)
(-0.0881364 0.0568481 0)
(-0.09676 0.0499166 0)
(-0.10453 0.0409247 0)
(-0.110904 0.0300812 0)
(-0.115455 0.0177271 0)
(-0.117758 0.00439624 0)
(-0.117636 -0.0092047 0)
(-0.115103 -0.0223735 0)
(-0.110381 -0.0344086 0)
(-0.103862 -0.0447923 0)
(-0.0960843 -0.0532527 0)
(-0.087544 -0.0596044 0)
(-0.0786632 -0.0639173 0)
(-0.0698148 -0.0662333 0)
(-0.0800577 0.0722988 0)
(-0.0891609 0.0678747 0)
(-0.0981584 0.0614924 0)
(-0.106644 0.0531268 0)
(-0.114166 0.0428737 0)
(-0.120267 0.0309561 0)
(-0.124481 0.0176937 0)
(-0.126528 0.00361607 0)
(-0.126246 -0.0106667 0)
(-0.123682 -0.024504 0)
(-0.118991 -0.0373032 0)
(-0.112595 -0.048597 0)
(-0.104899 -0.0581136 0)
(-0.096374 -0.0657303 0)
(-0.0874607 -0.0713817 0)
(-0.0784022 -0.0751907 0)
(-0.090269 0.0797708 0)
(-0.0994918 0.0735539 0)
(-0.108392 0.065495 0)
(-0.116622 0.0556155 0)
(-0.123738 0.0441415 0)
(-0.129356 0.0311749 0)
(-0.133147 0.017146 0)
(-0.134862 0.00242774 0)
(-0.134414 -0.0123862 0)
(-0.131801 -0.0268046 0)
(-0.127237 -0.0402659 0)
(-0.120991 -0.052433 0)
(-0.113468 -0.063037 0)
(-0.105031 -0.0719364 0)
(-0.0960436 -0.0790577 0)
(-0.0867756 -0.0844414 0)
(-0.100884 0.0865624 0)
(-0.110139 0.0783622 0)
(-0.118846 0.0684552 0)
(-0.12659 0.0571336 0)
(-0.133101 0.0443899 0)
(-0.138096 0.0305638 0)
(-0.141331 0.0158709 0)
(-0.14265 0.000733559 0)
(-0.141973 -0.014473 0)
(-0.13935 -0.0292641 0)
(-0.134911 -0.0432992 0)
(-0.1289 -0.056271 0)
(-0.121586 -0.0679448 0)
(-0.113249 -0.0781721 0)
(-0.10419 -0.0868384 0)
(-0.0946272 -0.0939556 0)
(-0.111743 0.0920741 0)
(-0.120964 0.081603 0)
(-0.129191 0.0699288 0)
(-0.136236 0.0571312 0)
(-0.141932 0.043362 0)
(-0.146118 0.0288054 0)
(-0.148663 0.013746 0)
(-0.149484 -0.00157652 0)
(-0.148553 -0.0168738 0)
(-0.145906 -0.0318699 0)
(-0.141634 -0.0463141 0)
(-0.135879 -0.0599704 0)
(-0.128784 -0.0726714 0)
(-0.120569 -0.0842253 0)
(-0.111386 -0.0945491 0)
(-0.101462 -0.103533 0)
(-0.12207 0.0945324 0)
(-0.130748 0.0821123 0)
(-0.138166 0.0689014 0)
(-0.144255 0.0550269 0)
(-0.148954 0.0406225 0)
(-0.152218 0.0258269 0)
(-0.154017 0.0107826 0)
(-0.154332 -0.00436561 0)
(-0.153161 -0.0194717 0)
(-0.150515 -0.0343904 0)
(-0.146419 -0.0489778 0)
(-0.140913 -0.0630935 0)
(-0.134051 -0.0766016 0)
(-0.125897 -0.089372 0)
(-0.116531 -0.101282 0)
(-0.106042 -0.112216 0)
(-0.00106296 -0.00101567 0)
(-0.00191464 -0.0019604 0)
(-0.00246436 -0.00284928 0)
(-0.00278181 -0.00382968 0)
(-0.00275508 -0.00478188 0)
(-0.00236298 -0.00560704 0)
(-0.0016781 -0.00634852 0)
(-0.000741086 -0.00692974 0)
(0.000334662 -0.00705089 0)
(0.00134266 -0.00665263 0)
(0.0021356 -0.0059765 0)
(0.00263719 -0.00515211 0)
(0.00274376 -0.00414313 0)
(0.00248599 -0.00310486 0)
(0.00190604 -0.00208554 0)
(0.00106169 -0.00107581 0)
(-0.0045237 -0.00441843 0)
(-0.00653554 -0.00693417 0)
(-0.00789826 -0.00958035 0)
(-0.00841067 -0.0122008 0)
(-0.0080423 -0.0147498 0)
(-0.00679384 -0.0171473 0)
(-0.00472197 -0.0191716 0)
(-0.00199115 -0.0204716 0)
(0.00102062 -0.0207023 0)
(0.00388983 -0.0198546 0)
(0.00621577 -0.0181244 0)
(0.00771384 -0.0157453 0)
(0.00824229 -0.0130151 0)
(0.00780691 -0.0101702 0)
(0.00648664 -0.0073467 0)
(0.00438091 -0.00453465 0)
(-0.00896931 -0.00886684 0)
(-0.011816 -0.0128748 0)
(-0.0134535 -0.0168568 0)
(-0.0139018 -0.0209485 0)
(-0.0130045 -0.0249099 0)
(-0.0107633 -0.0284624 0)
(-0.00734454 -0.0314021 0)
(-0.00300491 -0.0333407 0)
(0.00173517 -0.0336887 0)
(0.00622472 -0.03235 0)
(0.00992146 -0.0297373 0)
(0.0124638 -0.0262455 0)
(0.0135755 -0.0221212 0)
(0.013258 -0.017783 0)
(0.0116053 -0.0134517 0)
(0.00873529 -0.00914954 0)
(-0.0143888 -0.0143927 0)
(-0.0174999 -0.0194883 0)
(-0.019167 -0.0247402 0)
(-0.0192145 -0.0299728 0)
(-0.0175956 -0.0350097 0)
(-0.0143486 -0.0396028 0)
(-0.00962482 -0.0432957 0)
(-0.00380367 -0.0455312 0)
(0.00245126 -0.0458765 0)
(0.00840347 -0.0442884 0)
(0.013394 -0.0410487 0)
(0.0169241 -0.0365563 0)
(0.0187413 -0.0313362 0)
(0.0187848 -0.0258016 0)
(0.0171519 -0.0202513 0)
(0.0139401 -0.0147284 0)
(-0.0204914 -0.0207008 0)
(-0.0236057 -0.0268373 0)
(-0.0248837 -0.0329866 0)
(-0.0243562 -0.039224 0)
(-0.0219005 -0.0452082 0)
(-0.0175624 -0.0504923 0)
(-0.0115875 -0.0546561 0)
(-0.00441692 -0.0571954 0)
(0.00321155 -0.057562 0)
(0.0104612 -0.0556611 0)
(0.016621 -0.0518842 0)
(0.0211775 -0.0467349 0)
(0.0237884 -0.0406547 0)
(0.0243909 -0.0341744 0)
(0.0230645 -0.0276476 0)
(0.0199122 -0.0211689 0)
(-0.0272533 -0.0278127 0)
(-0.0299087 -0.0346377 0)
(-0.0306352 -0.0416673 0)
(-0.0293012 -0.0486461 0)
(-0.0258805 -0.0552815 0)
(-0.0204537 -0.0611714 0)
(-0.013268 -0.0657195 0)
(-0.00485514 -0.0683255 0)
(0.00399233 -0.0686146 0)
(0.0124378 -0.0665694 0)
(0.0197196 -0.0624476 0)
(0.0252535 -0.0567163 0)
(0.0287301 -0.0499902 0)
(0.0300509 -0.0427947 0)
(0.0292757 -0.0355139 0)
(0.0264972 -0.028288 0)
(-0.0344116 -0.0354507 0)
(-0.0364309 -0.0429789 0)
(-0.0362991 -0.0505716 0)
(-0.0340416 -0.0581879 0)
(-0.0295846 -0.0653871 0)
(-0.0230265 -0.071604 0)
(-0.0146894 -0.0763145 0)
(-0.00512382 -0.0790146 0)
(0.00484699 -0.0792745 0)
(0.0143644 -0.0770224 0)
(0.022673 -0.0725984 0)
(0.029209 -0.066528 0)
(0.0336088 -0.0593367 0)
(0.0357688 -0.0516 0)
(0.0357352 -0.0437468 0)
(0.0336141 -0.0359614 0)
(-0.0419413 -0.0436614 0)
(-0.0429858 -0.051607 0)
(-0.0418902 -0.0597879 0)
(-0.0385539 -0.0678357 0)
(-0.0329802 -0.0753369 0)
(-0.0253005 -0.0818132 0)
(-0.0158427 -0.0866462 0)
(-0.00522287 -0.0892744 0)
(0.00575321 -0.0894171 0)
(0.0162717 -0.087079 0)
(0.025581 -0.0825 0)
(0.033075 -0.0761401 0)
(0.0384421 -0.0686317 0)
(0.0415426 -0.060521 0)
(0.0424081 -0.0522395 0)
(0.0411599 -0.0440415 0)
(-0.0496351 -0.0522369 0)
(-0.0495889 -0.0606521 0)
(-0.0473074 -0.069153 0)
(-0.0428062 -0.0775274 0)
(-0.0360718 -0.0852772 0)
(-0.0272571 -0.0918046 0)
(-0.01675 -0.0965714 0)
(-0.00514115 -0.0991503 0)
(0.00676853 -0.0992273 0)
(0.018197 -0.0967595 0)
(0.028421 -0.0920386 0)
(0.0368997 -0.0855668 0)
(0.0432636 -0.0778677 0)
(0.0473812 -0.0694888 0)
(0.049288 -0.0609347 0)
(0.0491038 -0.0524383 0)
(-0.0574836 -0.0612674 0)
(-0.056086 -0.0699509 0)
(-0.0525293 -0.0787629 0)
(-0.0467554 -0.0873027 0)
(-0.0388139 -0.0950696 0)
(-0.0288884 -0.101566 0)
(-0.0173669 -0.10625 0)
(-0.0048623 -0.108661 0)
(0.00788125 -0.108588 0)
(0.0201588 -0.106073 0)
(0.0312886 -0.101333 0)
(0.0407018 -0.0947871 0)
(0.0480915 -0.0869809 0)
(0.0533109 -0.0784947 0)
(0.0563666 -0.0697409 0)
(0.0573875 -0.0610293 0)
(-0.0652922 -0.070674 0)
(-0.0624444 -0.0796185 0)
(-0.0574396 -0.0885518 0)
(-0.0503206 -0.0971082 0)
(-0.0411584 -0.104815 0)
(-0.0301366 -0.111129 0)
(-0.0176832 -0.115561 0)
(-0.004358 -0.117791 0)
(0.00916319 -0.11762 0)
(0.0222105 -0.115041 0)
(0.0341527 -0.110286 0)
(0.0445176 -0.103765 0)
(0.0529579 -0.0959947 0)
(0.0593336 -0.087447 0)
(0.0636431 -0.0785954 0)
(0.0660014 -0.0697084 0)
(-0.0729801 -0.0804853 0)
(-0.0684686 -0.0895851 0)
(-0.0619105 -0.0985669 0)
(-0.0534025 -0.107007 0)
(-0.0429882 -0.114448 0)
(-0.0309247 -0.120436 0)
(-0.017617 -0.124582 0)
(-0.00356006 -0.126556 0)
(0.0106259 -0.12621 0)
(0.0243702 -0.123607 0)
(0.037095 -0.118918 0)
(0.048353 -0.112512 0)
(0.0578692 -0.104818 0)
(0.0654688 -0.0963178 0)
(0.0711292 -0.0873984 0)
(0.0749407 -0.07835 0)
(-0.0802855 -0.0906623 0)
(-0.0739528 -0.0998903 0)
(-0.0657564 -0.108775 0)
(-0.055779 -0.116928 0)
(-0.0441341 -0.123968 0)
(-0.0311191 -0.12951 0)
(-0.0170525 -0.133217 0)
(-0.00238867 -0.134866 0)
(0.0123735 -0.134371 0)
(0.0266917 -0.131748 0)
(0.0400977 -0.127164 0)
(0.0522357 -0.120924 0)
(0.0628266 -0.113408 0)
(0.0717087 -0.104985 0)
(0.0788079 -0.0960154 0)
(0.0841845 -0.0867535 0)
(-0.086879 -0.101181 0)
(-0.0785545 -0.110448 0)
(-0.0686132 -0.119102 0)
(-0.0571552 -0.126811 0)
(-0.0443744 -0.133261 0)
(-0.0304931 -0.13819 0)
(-0.015811 -0.141372 0)
(-0.000692416 -0.142647 0)
(0.0144501 -0.141947 0)
(0.0291928 -0.139303 0)
(0.0431816 -0.134868 0)
(0.0561338 -0.128857 0)
(0.0677929 -0.121551 0)
(0.077999 -0.113226 0)
(0.0866278 -0.104192 0)
(0.0937348 -0.0946406 0)
(-0.0921666 -0.111893 0)
(-0.0816876 -0.121093 0)
(-0.0699569 -0.129309 0)
(-0.0571393 -0.136327 0)
(-0.0433413 -0.141995 0)
(-0.0287766 -0.146155 0)
(-0.0137184 -0.148678 0)
(0.00158718 -0.149483 0)
(0.0168651 -0.148539 0)
(0.0318366 -0.14589 0)
(0.0462645 -0.141618 0)
(0.059911 -0.135864 0)
(0.0726008 -0.128774 0)
(0.0841407 -0.120566 0)
(0.0944382 -0.111406 0)
(0.103423 -0.101478 0)
(-0.0945324 -0.12207 0)
(-0.0821123 -0.130748 0)
(-0.0689014 -0.138166 0)
(-0.0550269 -0.144255 0)
(-0.0406225 -0.148954 0)
(-0.0258269 -0.152218 0)
(-0.0107826 -0.154017 0)
(0.00436561 -0.154332 0)
(0.0194717 -0.153161 0)
(0.0343904 -0.150515 0)
(0.0489778 -0.146419 0)
(0.0630935 -0.140913 0)
(0.0766016 -0.134051 0)
(0.089372 -0.125897 0)
(0.101282 -0.116531 0)
(0.112216 -0.106042 0)
)
;

boundaryField
{
    walls
    {
        type            cellMotion;
        value           uniform (0 0 0);
    }
    cylinder
    {
        type            cellMotion;
        value           nonuniform List<vector> 
64
(
(0.12207 -0.0945324 0)
(0.130748 -0.0821123 0)
(0.138166 -0.0689014 0)
(0.144255 -0.0550269 0)
(0.148954 -0.0406225 0)
(0.152218 -0.0258269 0)
(0.154017 -0.0107826 0)
(0.154332 0.00436561 0)
(0.153161 0.0194717 0)
(0.150515 0.0343904 0)
(0.146419 0.0489778 0)
(0.140913 0.0630935 0)
(0.134051 0.0766016 0)
(0.125897 0.089372 0)
(0.116531 0.101282 0)
(0.106042 0.112216 0)
(0.0945324 0.12207 0)
(0.0821123 0.130748 0)
(0.0689014 0.138166 0)
(0.0550269 0.144255 0)
(0.0406225 0.148954 0)
(0.0258269 0.152218 0)
(0.0107826 0.154017 0)
(-0.00436561 0.154332 0)
(-0.0194717 0.153161 0)
(-0.0343904 0.150515 0)
(-0.0489778 0.146419 0)
(-0.0630935 0.140913 0)
(-0.0766016 0.134051 0)
(-0.089372 0.125897 0)
(-0.101282 0.116531 0)
(-0.112216 0.106042 0)
(-0.12207 0.0945324 0)
(-0.130748 0.0821123 0)
(-0.138166 0.0689014 0)
(-0.144255 0.0550269 0)
(-0.148954 0.0406225 0)
(-0.152218 0.0258269 0)
(-0.154017 0.0107826 0)
(-0.154332 -0.00436561 0)
(-0.153161 -0.0194717 0)
(-0.150515 -0.0343904 0)
(-0.146419 -0.0489778 0)
(-0.140913 -0.0630935 0)
(-0.134051 -0.0766016 0)
(-0.125897 -0.089372 0)
(-0.116531 -0.101282 0)
(-0.106042 -0.112216 0)
(-0.0945324 -0.12207 0)
(-0.0821123 -0.130748 0)
(-0.0689014 -0.138166 0)
(-0.0550269 -0.144255 0)
(-0.0406225 -0.148954 0)
(-0.0258269 -0.152218 0)
(-0.0107826 -0.154017 0)
(0.00436561 -0.154332 0)
(0.0194717 -0.153161 0)
(0.0343904 -0.150515 0)
(0.0489778 -0.146419 0)
(0.0630935 -0.140913 0)
(0.0766016 -0.134051 0)
(0.089372 -0.125897 0)
(0.101282 -0.116531 0)
(0.112216 -0.106042 0)
)
;
    }
    outlet
    {
        type            cellMotion;
        value           uniform (0 0 0);
    }
    inlet
    {
        type            cellMotion;
        value           uniform (0 0 0);
    }
    frontAndBack
    {
        type            empty;
    }
}


// ************************************************************************* //
