/*--------------------------------*- C++ -*----------------------------------*\
| =========                 |                                                 |
| \\      /  F ield         | OpenFOAM: The Open Source CFD Toolbox           |
|  \\    /   O peration     | Version:  2412                                  |
|   \\  /    A nd           | Website:  www.openfoam.com                      |
|    \\/     M anipulation  |                                                 |
\*---------------------------------------------------------------------------*/
FoamFile
{
    version     2.0;
    format      ascii;
    arch        "LSB;label=32;scalar=64";
    class       surfaceScalarField;
    location    "0.2";
    object      meshPhi;
}
// * * * * * * * * * * * * * * * * * * * * * * * * * * * * * * * * * * * * * //

dimensions      [0 3 -1 0 0 0 0];

internalField   nonuniform List<scalar> 
1984
(
0.00265183
-0.00692208
-0.00273769
0.00297166
-0.00767711
0.00332343
-0.00865487
0.00366417
-0.00914249
0.00397181
-0.00903714
0.00410941
-0.00798685
0.00453431
-0.00584326
0.00513598
-0.00279891
0.00549988
0.00120356
0.00569932
0.00562928
0.0057316
0.00941346
0.00551791
0.0118217
0.00490428
0.01238
0.00391849
0.0110895
0.00293016
0.00877904
0.00685321
0.00249934
0.00843796
-0.0139949
-0.00852459
0.00938645
-0.0155773
0.010249
-0.0170652
0.0111947
-0.0174673
0.0119609
-0.0168228
0.0122736
-0.0145461
0.0133384
-0.0105003
0.0148703
-0.00498401
0.0158516
0.00204171
0.0164155
0.00971163
0.0165326
0.0163195
0.0159952
0.0206586
0.0143818
0.0219704
0.011874
0.0203586
0.00923025
0.016961
0.0137648
0.00801481
0.015104
-0.0210154
-0.015051
0.0166093
-0.0231735
0.0177843
-0.024945
0.0190347
-0.0249641
0.0199575
-0.0233962
0.0203663
-0.0198745
0.0216932
-0.0142603
0.023638
-0.00676651
0.0250191
0.00252479
0.0258781
0.0124965
0.0261302
0.0211487
0.025444
0.0269846
0.0233182
0.0292038
0.0200557
0.0279624
0.0163619
0.0242968
0.0204451
0.0145588
0.0225349
-0.0276649
-0.0223846
0.0244734
-0.0301879
0.0257957
-0.0319236
0.0270478
-0.0313189
0.0279143
-0.0287522
0.0283415
-0.024045
0.029627
-0.0171071
0.0315905
-0.00809646
0.033163
0.00278726
0.0342376
0.0142791
0.0346559
0.0242919
0.0339907
0.0312457
0.0318123
0.0343929
0.0283916
0.0338969
0.0241609
0.0305276
0.0266292
0.0221417
0.0306322
-0.033743
-0.0305602
0.0327994
-0.0362449
0.0340967
-0.0377633
0.0351365
-0.036528
0.0357769
-0.0329714
0.0361059
-0.0272219
0.0371719
-0.019257
0.0389249
-0.00913592
0.040528
0.00282838
0.0417489
0.0152766
0.0423496
0.0261516
0.0418681
0.0339116
0.039954
0.0378965
0.0367863
0.0382329
0.0324898
0.0354967
0.0319694
0.0306351
0.0392535
-0.0388058
-0.0394601
0.0414114
-0.0411308
0.0425199
-0.0422498
0.0431829
-0.0403834
0.0434705
-0.0360338
0.0435847
-0.0294667
0.0443275
-0.0207177
0.0457539
-0.00984949
0.0472731
0.0027184
0.048585
0.0156156
0.04938
0.0268861
0.0492087
0.0351227
0.0477783
0.0397776
0.0451298
0.0409337
0.0411731
0.038999
0.0361523
0.0398244
0.0483014
-0.0426549
-0.0489595
0.0501718
-0.0445666
0.0509231
-0.0452254
0.051097
-0.0428852
0.0509303
-0.0379438
0.0507205
-0.0308162
0.0510808
-0.0216007
0.0521357
-0.0103367
0.0534951
0.00245345
0.0548536
0.0153915
0.0558684
0.0267001
0.0561142
0.035146
0.0553194
0.040281
0.0533942
0.0421419
0.0500726
0.0410322
0.0389813
0.0494999
0.0578332
-0.0452376
-0.0591777
0.0590779
-0.0466006
0.0592373
-0.0466834
0.0587946
-0.043917
0.0581003
-0.0386705
0.0574889
-0.0312919
0.057431
-0.0218611
0.058098
-0.0105212
0.0592593
0.00209938
0.0606488
0.0146754
0.0619312
0.0256661
0.0626904
0.0340613
0.0626791
0.0394791
0.061609
0.0419159
0.0591761
0.0416312
0.0405346
0.0596576
0.0678707
-0.0462802
-0.0701033
0.0681066
-0.0470078
0.0674062
-0.0465033
0.0662344
-0.0434948
0.0649541
-0.0381581
0.0638805
-0.0307602
0.0633881
-0.0214214
0.0636726
-0.0103501
0.0646375
0.00173215
0.0660773
0.0135841
0.0676897
0.023951
0.0690729
0.0320578
0.0698788
0.0375489
0.06976
0.0403891
0.0685672
0.0409514
0.0408202
0.0703076
0.0781577
-0.0454345
-0.08141
0.0771571
-0.0455743
0.0754185
-0.0445701
0.073406
-0.0414577
0.0714928
-0.0363068
0.0699245
-0.0292075
0.0689905
-0.0202396
0.0689328
-0.00976137
0.0697472
0.00138232
0.0712999
0.0121367
0.0732972
0.0216084
0.0753062
0.0291905
0.0769453
0.0345874
0.0779702
0.0377962
0.0782815
0.0391091
0.0398103
0.0814266
0.0885447
-0.0427757
-0.0929568
0.0861614
-0.0422498
0.083277
-0.0407906
0.0803555
-0.0377514
0.0777419
-0.0330199
0.0756351
-0.0265161
0.0742711
-0.0182475
0.0739307
-0.00871326
0.0746935
0.00115459
0.076408
0.0105273
0.078768
0.0188729
0.081401
0.0257471
0.0840261
0.0308712
0.0864102
0.0342755
0.0884773
0.0362046
0.0375284
0.0932355
0.0990761
-0.0381157
-0.104874
0.0951964
-0.0370429
0.0911046
-0.0352425
0.0872018
-0.032361
0.0838138
-0.0282527
0.0811192
-0.0226163
0.0793333
-0.0154499
0.0787606
-0.00728938
0.0795322
0.00104549
0.0814249
0.00891991
0.0841783
0.0159561
0.0875469
0.0218526
0.0913046
0.0264732
0.0952667
0.0298332
0.0993241
0.0320464
0.033692
0.105713
0.109857
-0.0313647
-0.117117
0.104368
-0.0300412
0.0989472
-0.0280485
0.0939912
-0.0255
0.0897071
-0.0220919
0.0863465
-0.0174801
0.0841437
-0.0117883
0.0833826
-0.00539332
0.0841533
0.00112995
0.0862921
0.00728458
0.0895617
0.0127686
0.0937997
0.0174586
0.0988589
0.0212915
0.104532
0.0242598
0.110538
0.0264133
0.028121
0.118471
0.120848
-0.0225216
-0.129697
0.113502
-0.0211336
0.106679
-0.0192906
0.100502
-0.0172913
0.0951929
-0.0146462
0.0911423
-0.0112345
0.0885713
-0.00727127
0.0876614
-0.00297937
0.08848
0.00135925
0.0909316
0.00545589
0.094824
0.00916769
0.10006
0.0124326
0.10647
0.0152033
0.113771
0.017477
0.121627
0.0192496
0.0207794
0.13103
0.131391
-0.0113539
-0.141908
0.122013
-0.0102633
0.113575
-0.00902405
0.10607
-0.00774883
0.0998194
-0.00622018
0.0951635
-0.00442607
0.0922925
-0.00248211
0.0913109
-0.000480611
0.0922605
0.00151171
0.0950675
0.00342599
0.0996244
0.00522029
0.105814
0.00685876
0.113423
0.00833138
0.122184
0.00961887
0.131769
0.0107092
0.0117017
0.142627
0.137086
-0.149189
0.126023
0.116236
0.107893
0.101222
0.0964316
0.0936451
0.0929126
0.0942255
0.097518
0.102682
0.109549
0.117908
0.127494
0.137998
0.149352
0.00275037
-0.00665012
0.00346268
-0.00830272
0.0042032
-0.0103291
0.00450651
-0.0114119
0.00437543
-0.0108322
0.00422093
-0.00891551
0.00419629
-0.00613606
0.00455141
-0.002465
0.00499109
0.00167542
0.00486823
0.00529062
0.00451192
0.00784097
0.00405385
0.00918792
0.00355367
0.0094933
0.00292522
0.00887884
0.00204805
0.00726623
0.00552687
0.00162462
0.00860015
-0.0135992
0.0106475
-0.0163652
0.0125166
-0.0195312
0.0133129
-0.0208363
0.0130585
-0.019577
0.0126372
-0.0161237
0.0124906
-0.0110238
0.0133431
-0.00440209
0.0144225
0.0028792
0.0141888
0.00931143
0.0133168
0.0139869
0.0121378
0.0166653
0.0107834
0.017581
0.00910551
0.0168889
0.00673314
0.0144299
0.0115048
0.00554282
0.0153169
-0.0207217
0.0182479
-0.0240329
0.020674
-0.0274554
0.0217382
-0.0284894
0.021484
-0.0264511
0.0208816
-0.0216781
0.0206129
-0.0147411
0.0216106
-0.00592105
0.0228992
0.00366626
0.0227257
0.0122234
0.0216794
0.0186144
0.0201671
0.0225806
0.0183241
0.024369
0.0159312
0.023976
0.0125411
0.0211586
0.0175778
0.0108116
0.0228899
-0.027545
0.0261856
-0.0309079
0.0287056
-0.0340558
0.0298032
-0.0343977
0.0295651
-0.0315321
0.0288675
-0.0257351
0.0285021
-0.0174123
0.0293831
-0.00697212
0.0305952
0.00421929
0.0305575
0.0142726
0.0296031
0.0219927
0.0280743
0.0270863
0.0260517
0.0297163
0.0232734
0.0298031
0.0193102
0.0270816
0.0234156
0.0174206
0.0311519
-0.0337082
0.0344232
-0.0367961
0.0366982
-0.0393137
0.0376331
-0.0388728
0.0373474
-0.0351967
0.0365597
-0.0284936
0.0360739
-0.0191305
0.0367052
-0.00763715
0.0377175
0.00455728
0.0378257
0.0155757
0.0371181
0.0242246
0.0357781
0.0302093
0.0338099
0.0336203
0.0309879
0.0342937
0.0269289
0.0320019
0.028662
0.0252428
0.0399323
-0.0388066
0.0428802
-0.0413736
0.0447002
-0.0431284
0.0453006
-0.0418323
0.0448468
-0.0373989
0.0439255
-0.0300301
0.0432832
-0.0199963
0.0436085
-0.00790438
0.0443768
0.00476586
0.0446164
0.016258
0.0442243
0.0254563
0.0432079
0.0320474
0.0415226
0.0360586
0.0389908
0.0373319
0.0352421
0.0356765
0.0329088
0.0340085
0.0490945
-0.0426203
0.0515115
-0.0445786
0.0527231
-0.0454803
0.0528516
-0.0434277
0.0520925
-0.0383747
0.05095
-0.0304972
0.0501014
-0.0201022
0.0501048
-0.00785792
0.0506342
0.00483659
0.0510002
0.0163803
0.0509583
0.0257634
0.0503876
0.0326929
0.0492079
0.0371582
0.0472186
0.0389713
0.0439297
0.0379133
0.0357115
0.0432579
0.0585956
-0.0450289
0.0602554
-0.0462121
0.0607659
-0.0462889
0.0602877
-0.0435724
0.0590856
-0.0380579
0.0576266
-0.0299591
0.0565159
-0.019565
0.0562043
-0.00755511
0.0565363
0.0047605
0.0570394
0.0159886
0.057398
0.0252446
0.0574091
0.0322532
0.0568872
0.0369612
0.0554586
0.039137
0.0526994
0.0386532
0.0371576
0.052754
0.0683426
-0.0458179
0.0690465
-0.0462651
0.0687339
-0.0455584
0.0675805
-0.0423387
0.0658394
-0.0365846
0.0639634
-0.0285233
0.0625318
-0.0184638
0.0619405
-0.00703401
0.0621487
0.00457323
0.0628185
0.0151435
0.0636438
0.0239628
0.0643003
0.0307962
0.0643452
0.035538
0.0634826
0.0379794
0.0615621
0.0381418
0.0374153
0.0625799
0.0784316
-0.0450011
0.0779408
-0.0448048
0.076651
-0.0434112
0.0746944
-0.0397947
0.0723166
-0.0339985
0.0699748
-0.0262723
0.0681996
-0.0168704
0.0673919
-0.00636753
0.0675471
0.00419805
0.0684318
0.0138314
0.0697383
0.0219608
0.0708914
0.0284011
0.071486
0.0330481
0.0714406
0.0357709
0.0707646
0.036615
0.0366713
0.0731442
0.0889994
-0.0425561
0.0870038
-0.0418127
0.0844617
-0.0398194
0.0815145
-0.0359717
0.0784414
-0.030401
0.0756331
-0.0232883
0.0735505
-0.0148591
0.0725882
-0.00555936
0.0727752
0.00374224
0.0739008
0.0121938
0.0755416
0.0194143
0.0771539
0.0252775
0.0785384
0.0297181
0.0797046
0.032664
0.0808556
0.0341422
0.034906
0.0849667
0.0999797
-0.038198
0.0961892
-0.0370439
0.0921601
-0.0346653
0.0880978
-0.0308818
0.0842572
-0.025808
0.0810031
-0.0196404
0.0786773
-0.0124976
0.0775875
-0.00465036
0.0778291
0.0032016
0.0791586
0.0103542
0.0811257
0.0164866
0.083419
0.0215861
0.085911
0.0256355
0.0887782
0.0286257
0.0921455
0.0304902
0.0317169
0.0979854
0.111117
-0.031578
0.105419
-0.0302409
0.0998169
-0.0278446
0.0945195
-0.0244827
0.0898595
-0.0202603
0.0861526
-0.015317
0.0835731
-0.00968504
0.0823702
-0.00352756
0.0826764
0.00265422
0.0842875
0.00830554
0.0868259
0.0131503
0.0900684
0.0172922
0.0940681
0.0207665
0.0988988
0.0234927
0.104407
0.0254451
0.0269343
0.11191
0.122041
-0.0225971
0.114435
-0.0212922
0.107267
-0.0192409
0.100735
-0.0167489
0.0952071
-0.0137076
0.0909543
-0.0101378
0.08814
-0.00619762
0.0869148
-0.00201936
0.0874096
0.00214522
0.0894523
0.00595868
0.0927934
0.00936261
0.0973144
0.0123667
0.103016
0.0149857
0.109755
0.01718
0.117309
0.0188517
0.0203214
0.126453
0.132094
-0.0113282
0.122546
-0.010305
0.113844
-0.00900251
0.106163
-0.00760603
0.0998022
-0.00598764
0.0950551
-0.00415033
0.0920713
-0.0022105
0.0909415
-0.00023501
0.091725
0.00171132
0.0943289
0.00355459
0.0985991
0.00527439
0.104466
0.00685982
0.111719
0.00830536
0.120233
0.00959002
0.129685
0.0106521
0.0116398
0.140447
0.137268
0.12615
0.116296
0.107914
0.101214
0.0964073
0.0935915
0.0928286
0.0940964
0.0973483
0.102438
0.109238
0.117507
0.127046
0.13752
0.148863
0.00204322
-0.00405633
0.00276623
-0.00616788
0.00328382
-0.00806778
0.00361535
-0.00892632
0.00389413
-0.0088934
0.00403151
-0.00783254
0.00446604
-0.00565456
0.00507973
-0.00257597
0.00545763
0.0014186
0.00566463
0.00579896
0.00569665
0.00953027
0.00547951
0.0118892
0.00486442
0.0124067
0.0038793
0.0110936
0.0028885
0.00878053
0.00683829
0.00245806
0.00660666
-0.00913938
0.00868069
-0.0126282
0.0100542
-0.01572
0.0110284
-0.0169124
0.0117318
-0.0165181
0.0120434
-0.0142744
0.0131379
-0.0101832
0.0147079
-0.00461579
0.0157302
0.0023979
0.0163156
0.00999705
0.0164319
0.0165174
0.0158846
0.0207695
0.0142654
0.0220052
0.0117565
0.0203449
0.00910653
0.01693
0.0137047
0.00789201
0.0122696
-0.0150831
0.0153005
-0.0192516
0.0173023
-0.0228582
0.0187103
-0.0239973
0.0195857
-0.022906
0.0199956
-0.0195102
0.0213718
-0.0138672
0.0233833
-0.00632226
0.0248298
0.00295336
0.0257222
0.0128447
0.0259733
0.0213915
0.0252713
0.0271158
0.0231333
0.0292322
0.0198632
0.0279173
0.0161607
0.0242147
0.0203209
0.0143593
0.0189967
-0.0213113
0.0225635
-0.0256033
0.0249353
-0.0291941
0.0265189
-0.0299186
0.0274046
-0.0280558
0.0278471
-0.0236062
0.0292007
-0.0166868
0.0312583
-0.00763805
0.0329173
0.00323154
0.0340357
0.0146479
0.0344535
0.0245524
0.0337676
0.0313828
0.0315688
0.0344095
0.0281321
0.0338192
0.0238906
0.0303917
0.026435
0.0218723
0.026639
-0.0274304
0.0303566
-0.0314169
0.0328086
-0.0345816
0.0343595
-0.0347288
0.0351274
-0.0320533
0.0355069
-0.0267107
0.0366604
-0.018842
0.0385301
-0.00870876
0.0402367
0.00324542
0.0415102
0.0156322
0.0421122
0.0264074
0.0416062
0.0340432
0.0396638
0.0378992
0.0364716
0.038126
0.0321616
0.0353118
0.0317106
0.0303045
0.0349641
-0.0328067
0.0385091
-0.0362367
0.0407896
-0.0387767
0.0421229
-0.0382519
0.0426742
-0.0348895
0.0428985
-0.0288733
0.043752
-0.020325
0.0453118
-0.00948524
0.0469466
0.00307765
0.0483185
0.0159342
0.0491174
0.0271222
0.0489197
0.0352435
0.0474545
0.0397697
0.0447743
0.0408073
0.0408001
0.0387786
0.0358434
0.0394435
0.0436353
-0.0369364
0.0468083
-0.0397724
0.0487443
-0.0416344
0.0497339
-0.0405328
0.049983
-0.0366257
0.0499633
-0.0301704
0.0504628
-0.0212517
0.0516625
-0.0100552
0.0531444
0.0027351
0.0545682
0.0156567
0.0555904
0.0269065
0.05581
0.0352537
0.0549765
0.0402682
0.0530139
0.0420087
0.0496695
0.0407931
0.0386431
0.0490814
0.0524458
-0.0396106
0.0550527
-0.0417893
0.0565486
-0.0430142
0.057113
-0.0414566
0.0570029
-0.0372663
0.056677
-0.0306383
0.0567912
-0.0215818
0.0576102
-0.0103377
0.0588957
0.00229456
0.0603535
0.0148798
0.0616475
0.0258376
0.0623827
0.0341559
0.0623316
0.0394675
0.0612199
0.041788
0.0587578
0.0413919
0.0401916
0.0592165
0.0614424
-0.0408307
0.0632591
-0.0424009
0.0641326
-0.0429583
0.0642139
-0.0410709
0.0637101
-0.0367792
0.0630291
-0.0301668
0.0627462
-0.0212366
0.0631868
-0.0102702
0.0642733
0.0018402
0.0657819
0.0137269
0.0674098
0.0240875
0.068773
0.0321413
0.0695403
0.0375442
0.069378
0.0402775
0.0681512
0.0407302
0.0404967
0.0698627
0.0710477
-0.0407939
0.0716685
-0.0416412
0.0716404
-0.0414737
0.0710692
-0.0393092
0.0701099
-0.0350947
0.0690438
-0.0287321
0.0683617
-0.0201532
0.0684641
-0.00976776
0.0693946
0.00141787
0.0710144
0.0122262
0.0730304
0.0217133
0.0750242
0.0292644
0.0766291
0.0345925
0.0776127
0.0377093
0.0778883
0.0389218
0.039529
0.0810015
0.0815342
-0.0392693
0.0805095
-0.0393179
0.0792458
-0.0384727
0.0778008
-0.0361322
0.076238
-0.0321144
0.0747245
-0.026191
0.0736594
-0.0182352
0.073489
-0.00876993
0.0743634
0.00114596
0.0761421
0.0105789
0.0785233
0.0189515
0.0811476
0.025811
0.0837461
0.0308855
0.0860958
0.0342167
0.0881304
0.036061
0.0373042
0.0928572
0.0928969
-0.0358111
0.0899868
-0.0352186
0.0872155
-0.0338568
0.0846376
-0.0314191
0.0822647
-0.027738
0.0801941
-0.0224529
0.0787413
-0.0154766
0.0783517
-0.007353
0.0792332
0.00102458
0.0811879
0.0089505
0.0839657
0.0160133
0.0873333
0.0219046
0.0910748
0.0264921
0.095013
0.0297992
0.0990449
0.0319481
0.0335318
0.105406
0.105124
-0.0301503
0.100224
-0.0291733
0.0957321
-0.0274894
0.0917621
-0.0251474
0.0882972
-0.0219059
0.085488
-0.0174313
0.0836055
-0.0118172
0.0830243
-0.00543285
0.0838995
0.00111863
0.0860963
0.00730583
0.0893926
0.0128077
0.0936369
0.0174956
0.0986904
0.0213089
0.104351
0.0242445
0.11034
0.0263558
0.0280216
0.118252
0.117939
-0.0220284
0.110903
-0.0208819
0.104572
-0.0191884
0.0989566
-0.0172387
0.0941617
-0.0146163
0.0904921
-0.0112275
0.0881626
-0.00728094
0.0873952
-0.00298951
0.0882966
0.00136073
0.0907946
0.00547064
0.0947102
0.00918971
0.0999553
0.0124532
0.106366
0.0152147
0.113663
0.0174725
0.121509
0.0192232
0.0207312
0.130898
0.130167
-0.0112291
0.120896
-0.0102394
0.112621
-0.00903118
0.105334
-0.00775769
0.0993045
-0.00622294
0.0948278
-0.00442609
0.0920791
-0.00248211
0.0911731
-0.000479934
0.092167
0.00151466
0.0949992
0.00343148
0.0995693
0.0052271
0.105765
0.006865
0.113376
0.00833523
0.122136
0.00961845
0.131718
0.0107026
0.0116896
0.142569
0.136837
0.125787
0.116027
0.107726
0.101101
0.0963503
0.0935927
0.0928786
0.0942024
0.0975012
0.102668
0.109538
0.117897
0.127483
0.137986
0.149338
0.00271826
-0.00654832
0.00343167
-0.00833629
0.00416183
-0.0104961
0.00445593
-0.0116929
0.00435444
-0.0111888
0.0043579
-0.00931387
0.00473949
-0.00665892
0.00506112
-0.00331001
0.00497672
0.000486266
0.00485952
0.00415101
0.00502482
0.00747467
0.00512025
0.0101379
0.00482624
0.0114374
0.00420207
0.0111046
0.00331892
0.00945523
0.00751734
0.0085023
-0.0134179
0.0105525
-0.0164064
0.0123956
-0.0198062
0.0131673
-0.0213139
0.0129853
-0.0201989
0.0129943
-0.0168614
0.0138603
-0.0119995
0.0146325
-0.00586424
0.0145219
0.000922228
0.0143389
0.00741269
0.0147549
0.0132421
0.0149478
0.0178887
0.0141718
0.0203282
0.012501
0.0201037
0.0100619
0.0175488
0.0143877
0.0151511
-0.0204959
0.0180866
-0.0240735
0.0204798
-0.0277896
0.0215087
-0.0290872
0.0213434
-0.0272498
0.0213301
-0.0226411
0.0222828
-0.0159906
0.023225
-0.0077324
0.0232653
0.00124558
0.0232337
0.00979477
0.0238039
0.0174229
0.0240128
0.0235239
0.0229585
0.0269665
0.0206331
0.0271672
0.0171079
0.024383
0.0207245
0.0226578
-0.0273045
0.0259601
-0.0309479
0.0284469
-0.0344157
0.0295027
-0.0350526
0.0293546
-0.0324189
0.0292795
-0.0268068
0.0300838
-0.0187872
0.0310109
-0.00895182
0.0312596
0.00154541
0.0314736
0.0114787
0.0321484
0.020299
0.0323625
0.0273637
0.0312227
0.031607
0.028623
0.0324237
0.0245444
0.0299385
0.0263478
0.0308594
-0.0334784
0.0341395
-0.0368397
0.0363854
-0.0396753
0.0372767
-0.0395364
0.0370777
-0.0360971
0.0368664
-0.0295826
0.0374024
-0.020535
0.0382025
-0.00968178
0.038637
0.00173318
0.0391109
0.0125036
0.0398893
0.0220514
0.0401511
0.0297585
0.0391167
0.0346828
0.0366025
0.0362453
0.0324722
0.0344276
0.0313087
0.0395889
-0.0386048
0.0425483
-0.0414225
0.0443456
-0.0434742
0.044907
-0.0424632
0.0445345
-0.0382541
0.0441052
-0.0310817
0.0443071
-0.0213809
0.0449156
-0.00994875
0.0454811
0.00188329
0.0461847
0.0129862
0.0470829
0.0228285
0.0474865
0.030865
0.0467572
0.0363268
0.0446305
0.0386447
0.0408341
0.0376264
0.0351713
0.0487128
-0.0424551
0.0511448
-0.0446319
0.052342
-0.0457946
0.0524414
-0.0439947
0.0517509
-0.0391515
0.0510012
-0.0314713
0.0508285
-0.0214067
0.0512212
-0.00983754
0.0518633
0.00194544
0.0527494
0.0129622
0.0537949
0.0227711
0.0544606
0.0309356
0.0542375
0.0368231
0.0527035
0.0398343
0.0495336
0.0396715
0.0380472
0.0581907
-0.0449047
0.05987
-0.0462678
0.060376
-0.0465605
0.0598776
-0.0440606
0.058727
-0.038734
0.0575629
-0.0308114
0.056998
-0.020736
0.0571692
-0.00941765
0.0578349
0.0019339
0.0588667
0.0125107
0.0601228
0.0220094
0.0612204
0.0301168
0.0616425
0.0362757
0.0608821
0.0398726
0.0586979
0.0405869
0.0398751
0.0679333
-0.0457369
0.0686609
-0.0463233
0.0683525
-0.0457856
0.0671851
-0.0427442
0.0654755
-0.0371424
0.0638147
-0.0292242
0.0628537
-0.0194686
0.0628084
-0.00875062
0.0634607
0.00183943
0.0646267
0.0117042
0.0662023
0.0206907
0.0678245
0.028552
0.0689388
0.0347864
0.0691672
0.0388027
0.0683106
0.0402947
0.0404903
0.0780403
-0.044964
0.0775756
-0.0448681
0.0762949
-0.0436004
0.074325
-0.040119
0.0719583
-0.0344286
0.0697829
-0.0268073
0.0684375
-0.0177109
0.0681817
-0.00792609
0.068808
0.00166088
0.0701515
0.0106036
0.0720954
0.0188623
0.0742085
0.0262683
0.0760915
0.0323415
0.0774753
0.0365416
0.0781326
0.0385941
0.039498
0.0886511
-0.0425591
0.0866798
-0.0418842
0.0841447
-0.0399782
0.0811772
-0.0362161
0.0780995
-0.0307013
0.0754342
-0.0236736
0.0737435
-0.0155449
0.0732965
-0.00692016
0.0739288
0.0014885
0.0754589
0.00931702
0.0777018
0.0166445
0.0803362
0.0233641
0.0830896
0.0290179
0.08575
0.0331276
0.0881308
0.0354941
0.0369288
0.0996965
-0.0382311
0.0959235
-0.0371211
0.0918916
-0.0347915
0.0877985
-0.0310471
0.0839473
-0.0259959
0.0808255
-0.0199021
0.0788404
-0.0130391
0.0781798
-0.00575733
0.0788165
0.00135468
0.0805284
0.00800452
0.0831173
0.0142405
0.0863856
0.0199865
0.0901516
0.0249252
0.0942878
0.0286662
0.09852
0.0310972
0.032859
0.110913
-0.031623
0.105221
-0.0303076
0.0996056
-0.0279299
0.0942734
-0.0245778
0.089609
-0.0203631
0.0860177
-0.0154832
0.0836961
-0.0100548
0.0828347
-0.00429629
0.0834919
0.00136761
0.0854689
0.00666143
0.0885526
0.0115849
0.0926358
0.0161489
0.097638
0.0201026
0.103353
0.0231921
0.109359
0.0254524
0.0273548
0.121916
-0.0226302
0.11431
-0.0213315
0.107126
-0.0192839
0.100568
-0.0167913
0.0950437
-0.0137529
0.0908722
-0.010219
0.0882244
-0.00637701
0.0872593
-0.00241914
0.0879991
0.00146679
0.0903221
0.00512878
0.0940693
0.00855912
0.0991782
0.0117342
0.105509
0.0145057
0.112744
0.0167883
0.120504
0.0186347
0.0203162
0.132038
-0.0113387
0.122489
-0.0103165
0.113778
-0.00901412
0.106085
-0.00761659
0.0997312
-0.00599937
0.0950207
-0.00416771
0.0921255
-0.00225799
0.0911206
-0.000342099
0.0920262
0.00153724
0.0947761
0.00334055
0.0992655
0.00506273
0.105385
0.0066747
0.112942
0.00813066
0.121632
0.00942105
0.131155
0.0105409
0.0115539
0.137255
0.126138
0.116282
0.107898
0.1012
0.0964007
0.0936095
0.0928697
0.094174
0.0974555
0.102602
0.109452
0.117797
0.127364
0.137857
)
;

boundaryField
{
    walls
    {
        type            calculated;
        value           uniform 0;
    }
    cylinder
    {
        type            calculated;
        value           nonuniform List<scalar> 
64
(
2.46986e-11
-4.87869e-11
-3.15045e-11
4.34906e-11
-1.54429e-11
8.48888e-12
2.55902e-11
-2.08398e-11
2.08407e-11
-2.55895e-11
-8.48939e-12
1.54423e-11
-4.34913e-11
3.15057e-11
4.87881e-11
-2.46991e-11
2.46986e-11
-4.87869e-11
-3.15045e-11
4.34906e-11
-1.54429e-11
8.48888e-12
2.55902e-11
-2.08398e-11
2.08407e-11
-2.55895e-11
-8.48939e-12
1.54423e-11
-4.34913e-11
3.15057e-11
4.87881e-11
-2.46991e-11
2.46986e-11
-4.87869e-11
-3.15045e-11
4.34906e-11
-1.54429e-11
8.48888e-12
2.55902e-11
-2.08398e-11
2.08407e-11
-2.55895e-11
-8.48939e-12
1.54423e-11
-4.34913e-11
3.15057e-11
4.87881e-11
-2.46991e-11
2.46986e-11
-4.87869e-11
-3.15045e-11
4.34906e-11
-1.54429e-11
8.48888e-12
2.55902e-11
-2.08398e-11
2.08407e-11
-2.55895e-11
-8.48939e-12
1.54423e-11
-4.34913e-11
3.15057e-11
4.87881e-11
-2.46991e-11
)
;
    }
    outlet
    {
        type            calculated;
        value           uniform 0;
    }
    inlet
    {
        type            calculated;
        value           uniform 0;
    }
    frontAndBack
    {
        type            empty;
    }
}


// ************************************************************************* //
