/*--------------------------------*- C++ -*----------------------------------*\
| =========                 |                                                 |
| \\      /  F ield         | OpenFOAM: The Open Source CFD Toolbox           |
|  \\    /   O peration     | Version:  2412                                  |
|   \\  /    A nd           | Website:  www.openfoam.com                      |
|    \\/     M anipulation  |                                                 |
\*---------------------------------------------------------------------------*/
FoamFile
{
    version     2.0;
    format      ascii;
    arch        "LSB;label=32;scalar=64";
    class       pointVectorField;
    location    "0.2";
    object      pointDisplacement;
}
// * * * * * * * * * * * * * * * * * * * * * * * * * * * * * * * * * * * * * //

dimensions      [0 1 0 0 0 0 0];

internalField   nonuniform List<vector> 
2176
(
(0 0 0)
(0 0 0)
(0 0 0)
(0 0 0)
(0 0 0)
(0 0 0)
(0 0 0)
(0 0 0)
(0 0 0)
(0 0 0)
(0 0 0)
(0 0 0)
(0 0 0)
(0 0 0)
(0 0 0)
(0 0 0)
(0 0 0)
(0.00264756 -0.00273464 0)
(0.00354429 -0.00349709 0)
(0.00524361 -0.00465568 0)
(0.00696649 -0.00529496 0)
(0.00873069 -0.00538766 0)
(0.0104592 -0.00490571 0)
(0.0119782 -0.00383086 0)
(0.0131638 -0.0022457 0)
(0.0138008 -0.000320044 0)
(0.0136834 0.00169768 0)
(0.0128308 0.00348537 0)
(0.0113983 0.00477451 0)
(0.00960353 0.00541368 0)
(0.00764493 0.00536553 0)
(0.00566769 0.00468215 0)
(0.00373695 0.00345463 0)
(0.00272522 0.00265104 0)
(0.00650214 -0.00671165 0)
(0.00820292 -0.00793939 0)
(0.0113975 -0.00983173 0)
(0.0146388 -0.0107438 0)
(0.0179435 -0.0106497 0)
(0.0211215 -0.00949957 0)
(0.0238757 -0.00729253 0)
(0.0259775 -0.0041949 0)
(0.0270626 -0.000517058 0)
(0.0268182 0.00330015 0)
(0.0252764 0.00670813 0)
(0.0226945 0.00924449 0)
(0.0194396 0.0106407 0)
(0.0158532 0.010813 0)
(0.012207 0.00983536 0)
(0.00861939 0.00783131 0)
(0.00671393 0.00652769 0)
(0.0113533 -0.0117039 0)
(0.0137854 -0.0131181 0)
(0.0182621 -0.0153455 0)
(0.0228139 -0.0162143 0)
(0.0274007 -0.0156911 0)
(0.0317525 -0.013733 0)
(0.0354867 -0.0103774 0)
(0.0382588 -0.00586043 0)
(0.0396253 -0.000604237 0)
(0.0392427 0.00480442 0)
(0.0371514 0.00966741 0)
(0.0336742 0.0133913 0)
(0.02927 0.0156202 0)
(0.0243886 0.0162341 0)
(0.0193874 0.0152968 0)
(0.0144373 0.0129363 0)
(0.0117336 0.0114144 0)
(0.0170709 -0.0175628 0)
(0.0201844 -0.0189109 0)
(0.0257457 -0.0211179 0)
(0.0313938 -0.0216607 0)
(0.0370353 -0.0205117 0)
(0.042321 -0.0176407 0)
(0.0467982 -0.0131298 0)
(0.0500386 -0.0072773 0)
(0.0515642 -0.000591332 0)
(0.0510376 0.0062383 0)
(0.0485105 0.01242 0)
(0.0443437 0.0172768 0)
(0.0390546 0.0203946 0)
(0.0331631 0.0216215 0)
(0.0270896 0.0210025 0)
(0.0210448 0.0186522 0)
(0.0176373 0.0171823 0)
(0.0235362 -0.0241468 0)
(0.0272837 -0.0251934 0)
(0.0337444 -0.0270642 0)
(0.0403021 -0.027047 0)
(0.0467819 -0.0251085 0)
(0.0527843 -0.0212439 0)
(0.0578095 -0.0155828 0)
(0.0613613 -0.00847175 0)
(0.0629552 -0.000481945 0)
(0.0622855 0.00762964 0)
(0.0594158 0.0150186 0)
(0.0547275 0.0209613 0)
(0.0487698 0.0250062 0)
(0.0421059 0.0269784 0)
(0.035198 0.0268993 0)
(0.0283 0.0248737 0)
(0.0242634 0.023692 0)
(0.0306273 -0.0313063 0)
(0.0349791 -0.0318512 0)
(0.0421785 -0.0331176 0)
(0.0494612 -0.0323349 0)
(0.0565938 -0.0294766 0)
(0.0631264 -0.024561 0)
(0.0685201 -0.0177587 0)
(0.0722509 -0.00945738 0)
(0.0738469 -0.000271997 0)
(0.0730388 0.00900426 0)
(0.0699042 0.0175066 0)
(0.0648324 0.0244909 0)
(0.0583864 0.0294896 0)
(0.0511493 0.0323083 0)
(0.0436111 0.032949 0)
(0.036063 0.0315076 0)
(0.0314653 0.0308229 0)
(0.0382493 -0.0389094 0)
(0.0431773 -0.0387751 0)
(0.0509666 -0.0392043 0)
(0.05882 -0.0374905 0)
(0.0664312 -0.0336046 0)
(0.0733219 -0.027593 0)
(0.0789394 -0.0196666 0)
(0.0827447 -0.0102399 0)
(0.0842919 4.74042e-05 0)
(0.0833515 0.0103888 0)
(0.0800167 0.0199242 0)
(0.0746765 0.0279121 0)
(0.067889 0.0338803 0)
(0.060241 0.0376242 0)
(0.0522384 0.0391261 0)
(0.044207 0.0384775 0)
(0.0390922 0.0384594 0)
(0.0463264 -0.046837 0)
(0.0518128 -0.0458724 0)
(0.0600662 -0.0452693 0)
(0.0683343 -0.0424731 0)
(0.0762713 -0.0374705 0)
(0.0833726 -0.030335 0)
(0.0890777 -0.0213021 0)
(0.0928625 -0.0108091 0)
(0.0943179 0.000494162 0)
(0.0932534 0.0118113 0)
(0.0897753 0.0223066 0)
(0.0842623 0.0312604 0)
(0.0772567 0.0382097 0)
(0.0693343 0.0429409 0)
(0.0610014 0.0454182 0)
(0.052617 0.0457311 0)
(0.0470235 0.0465272 0)
(0.0548097 -0.0549864 0)
(0.0608338 -0.0530516 0)
(0.0694302 -0.0512361 0)
(0.0779817 -0.0472328 0)
(0.0860981 -0.0410401 0)
(0.0932672 -0.0327552 0)
(0.0989446 -0.022641 0)
(0.10263 -0.0111441 0)
(0.103957 0.00109326 0)
(0.102776 0.0133019 0)
(0.099204 0.0246891 0)
(0.0936006 0.0345738 0)
(0.0864796 0.0425094 0)
(0.0783858 0.048278 0)
(0.0698376 0.0518311 0)
(0.061211 0.0532581 0)
(0.0551497 0.0549835 0)
(0.0636546 -0.0632367 0)
(0.0702004 -0.0602022 0)
(0.0790479 -0.0570199 0)
(0.0877504 -0.051693 0)
(0.0959058 -0.0442486 0)
(0.103014 -0.034806 0)
(0.108547 -0.0236432 0)
(0.112052 -0.0112068 0)
(0.113215 0.00187923 0)
(0.111928 0.0148932 0)
(0.108307 0.0271047 0)
(0.102683 0.0378828 0)
(0.0955273 0.0468069 0)
(0.0873703 0.0536631 0)
(0.0787037 0.0583922 0)
(0.0699029 0.0610559 0)
(0.0633737 0.0638186 0)
(0.0728571 -0.0714708 0)
(0.0799181 -0.0672001 0)
(0.0889206 -0.0624945 0)
(0.0976535 -0.0557444 0)
(0.105704 -0.0469986 0)
(0.112599 -0.0364022 0)
(0.117873 -0.0242396 0)
(0.121126 -0.0109439 0)
(0.122094 0.00289757 0)
(0.120707 0.0166274 0)
(0.117074 0.0295905 0)
(0.111489 0.0412203 0)
(0.104391 0.0511362 0)
(0.0962554 0.0591254 0)
(0.0875385 0.0651118 0)
(0.0786097 0.0691384 0)
(0.0715714 0.0730302 0)
(0.0824075 -0.0795087 0)
(0.0899826 -0.0738546 0)
(0.0990564 -0.0674855 0)
(0.107684 -0.0592131 0)
(0.115473 -0.0491329 0)
(0.122013 -0.0374111 0)
(0.126904 -0.0243211 0)
(0.129817 -0.0102746 0)
(0.130557 0.00420884 0)
(0.129069 0.0185499 0)
(0.125456 0.0321794 0)
(0.119979 0.04461 0)
(0.113013 0.0555062 0)
(0.104967 0.0646669 0)
(0.0962497 0.0719912 0)
(0.0871901 0.0774849 0)
(0.0795705 0.0826016 0)
(0.0922969 -0.0870871 0)
(0.10038 -0.0798882 0)
(0.10942 -0.0717028 0)
(0.117797 -0.061836 0)
(0.125159 -0.0504254 0)
(0.131179 -0.0376327 0)
(0.135555 -0.0237292 0)
(0.138046 -0.00907232 0)
(0.138508 0.00590079 0)
(0.136909 0.0207084 0)
(0.133345 0.0348838 0)
(0.128029 0.0480418 0)
(0.121255 0.0598958 0)
(0.113351 0.0702474 0)
(0.104645 0.078977 0)
(0.0954239 0.0860505 0)
(0.0871133 0.0924919 0)
(0.102451 -0.0937733 0)
(0.111031 -0.0848153 0)
(0.119899 -0.0746931 0)
(0.127823 -0.0632288 0)
(0.134551 -0.0505445 0)
(0.139875 -0.036804 0)
(0.143596 -0.0222603 0)
(0.145561 -0.00720311 0)
(0.145684 0.0080383 0)
(0.14396 0.0231097 0)
(0.140462 0.0376747 0)
(0.135343 0.0514502 0)
(0.128799 0.0642002 0)
(0.121059 0.0757389 0)
(0.11236 0.0859318 0)
(0.102927 0.0947052 0)
(0.093768 0.102598 0)
(0.112358 -0.098556 0)
(0.121416 -0.087618 0)
(0.129808 -0.0756559 0)
(0.137 -0.0627557 0)
(0.142875 -0.049038 0)
(0.147328 -0.0346533 0)
(0.150269 -0.0197882 0)
(0.151634 -0.00464501 0)
(0.151389 0.010572 0)
(0.149539 0.0256497 0)
(0.146123 0.0403845 0)
(0.141216 0.0545839 0)
(0.134913 0.0680781 0)
(0.127332 0.0807106 0)
(0.118603 0.0923496 0)
(0.108863 0.102887 0)
(0.0985475 0.112412 0)
(0.117426 -0.100529 0)
(0.126714 -0.0885355 0)
(0.134781 -0.075689 0)
(0.141551 -0.0621137 0)
(0.146958 -0.0479401 0)
(0.150949 -0.0333049 0)
(0.153487 -0.0183489 0)
(0.154546 -0.00321623 0)
(0.154117 0.0119474 0)
(0.152204 0.026996 0)
(0.148825 0.0417847 0)
(0.144013 0.0561709 0)
(0.137814 0.0700161 0)
(0.130287 0.0831871 0)
(0.121506 0.0955569 0)
(0.111555 0.107006 0)
(0.100529 0.117426 0)
(0 0 0)
(0 0 0)
(0 0 0)
(0 0 0)
(0 0 0)
(0 0 0)
(0 0 0)
(0 0 0)
(0 0 0)
(0 0 0)
(0 0 0)
(0 0 0)
(0 0 0)
(0 0 0)
(0 0 0)
(0 0 0)
(0 0 0)
(0.00264756 -0.00273464 0)
(0.00354429 -0.00349709 0)
(0.00524361 -0.00465568 0)
(0.00696649 -0.00529496 0)
(0.00873069 -0.00538766 0)
(0.0104592 -0.00490571 0)
(0.0119782 -0.00383086 0)
(0.0131638 -0.0022457 0)
(0.0138008 -0.000320044 0)
(0.0136834 0.00169768 0)
(0.0128308 0.00348537 0)
(0.0113983 0.00477451 0)
(0.00960353 0.00541368 0)
(0.00764493 0.00536553 0)
(0.00566769 0.00468215 0)
(0.00373695 0.00345463 0)
(0.00272522 0.00265104 0)
(0.00650214 -0.00671165 0)
(0.00820292 -0.00793939 0)
(0.0113975 -0.00983173 0)
(0.0146388 -0.0107438 0)
(0.0179435 -0.0106497 0)
(0.0211215 -0.00949957 0)
(0.0238757 -0.00729253 0)
(0.0259775 -0.0041949 0)
(0.0270626 -0.000517058 0)
(0.0268182 0.00330015 0)
(0.0252764 0.00670813 0)
(0.0226945 0.00924449 0)
(0.0194396 0.0106407 0)
(0.0158532 0.010813 0)
(0.012207 0.00983536 0)
(0.00861939 0.00783131 0)
(0.00671393 0.00652769 0)
(0.0113533 -0.0117039 0)
(0.0137854 -0.0131181 0)
(0.0182621 -0.0153455 0)
(0.0228139 -0.0162143 0)
(0.0274007 -0.0156911 0)
(0.0317525 -0.013733 0)
(0.0354867 -0.0103774 0)
(0.0382588 -0.00586043 0)
(0.0396253 -0.000604237 0)
(0.0392427 0.00480442 0)
(0.0371514 0.00966741 0)
(0.0336742 0.0133913 0)
(0.02927 0.0156202 0)
(0.0243886 0.0162341 0)
(0.0193874 0.0152968 0)
(0.0144373 0.0129363 0)
(0.0117336 0.0114144 0)
(0.0170709 -0.0175628 0)
(0.0201844 -0.0189109 0)
(0.0257457 -0.0211179 0)
(0.0313938 -0.0216607 0)
(0.0370353 -0.0205117 0)
(0.042321 -0.0176407 0)
(0.0467982 -0.0131298 0)
(0.0500386 -0.0072773 0)
(0.0515642 -0.000591332 0)
(0.0510376 0.0062383 0)
(0.0485105 0.01242 0)
(0.0443437 0.0172768 0)
(0.0390546 0.0203946 0)
(0.0331631 0.0216215 0)
(0.0270896 0.0210025 0)
(0.0210448 0.0186522 0)
(0.0176373 0.0171823 0)
(0.0235362 -0.0241468 0)
(0.0272837 -0.0251934 0)
(0.0337444 -0.0270642 0)
(0.0403021 -0.027047 0)
(0.0467819 -0.0251085 0)
(0.0527843 -0.0212439 0)
(0.0578095 -0.0155828 0)
(0.0613613 -0.00847175 0)
(0.0629552 -0.000481945 0)
(0.0622855 0.00762964 0)
(0.0594158 0.0150186 0)
(0.0547275 0.0209613 0)
(0.0487698 0.0250062 0)
(0.0421059 0.0269784 0)
(0.035198 0.0268993 0)
(0.0283 0.0248737 0)
(0.0242634 0.023692 0)
(0.0306273 -0.0313063 0)
(0.0349791 -0.0318512 0)
(0.0421785 -0.0331176 0)
(0.0494612 -0.0323349 0)
(0.0565938 -0.0294766 0)
(0.0631264 -0.024561 0)
(0.0685201 -0.0177587 0)
(0.0722509 -0.00945738 0)
(0.0738469 -0.000271997 0)
(0.0730388 0.00900426 0)
(0.0699042 0.0175066 0)
(0.0648324 0.0244909 0)
(0.0583864 0.0294896 0)
(0.0511493 0.0323083 0)
(0.0436111 0.032949 0)
(0.036063 0.0315076 0)
(0.0314653 0.0308229 0)
(0.0382493 -0.0389094 0)
(0.0431773 -0.0387751 0)
(0.0509666 -0.0392043 0)
(0.05882 -0.0374905 0)
(0.0664312 -0.0336046 0)
(0.0733219 -0.027593 0)
(0.0789394 -0.0196666 0)
(0.0827447 -0.0102399 0)
(0.0842919 4.74042e-05 0)
(0.0833515 0.0103888 0)
(0.0800167 0.0199242 0)
(0.0746765 0.0279121 0)
(0.067889 0.0338803 0)
(0.060241 0.0376242 0)
(0.0522384 0.0391261 0)
(0.044207 0.0384775 0)
(0.0390922 0.0384594 0)
(0.0463264 -0.046837 0)
(0.0518128 -0.0458724 0)
(0.0600662 -0.0452693 0)
(0.0683343 -0.0424731 0)
(0.0762713 -0.0374705 0)
(0.0833726 -0.030335 0)
(0.0890777 -0.0213021 0)
(0.0928625 -0.0108091 0)
(0.0943179 0.000494162 0)
(0.0932534 0.0118113 0)
(0.0897753 0.0223066 0)
(0.0842623 0.0312604 0)
(0.0772567 0.0382097 0)
(0.0693343 0.0429409 0)
(0.0610014 0.0454182 0)
(0.052617 0.0457311 0)
(0.0470235 0.0465272 0)
(0.0548097 -0.0549864 0)
(0.0608338 -0.0530516 0)
(0.0694302 -0.0512361 0)
(0.0779817 -0.0472328 0)
(0.0860981 -0.0410401 0)
(0.0932672 -0.0327552 0)
(0.0989446 -0.022641 0)
(0.10263 -0.0111441 0)
(0.103957 0.00109326 0)
(0.102776 0.0133019 0)
(0.099204 0.0246891 0)
(0.0936006 0.0345738 0)
(0.0864796 0.0425094 0)
(0.0783858 0.048278 0)
(0.0698376 0.0518311 0)
(0.061211 0.0532581 0)
(0.0551497 0.0549835 0)
(0.0636546 -0.0632367 0)
(0.0702004 -0.0602022 0)
(0.0790479 -0.0570199 0)
(0.0877504 -0.051693 0)
(0.0959058 -0.0442486 0)
(0.103014 -0.034806 0)
(0.108547 -0.0236432 0)
(0.112052 -0.0112068 0)
(0.113215 0.00187923 0)
(0.111928 0.0148932 0)
(0.108307 0.0271047 0)
(0.102683 0.0378828 0)
(0.0955273 0.0468069 0)
(0.0873703 0.0536631 0)
(0.0787037 0.0583922 0)
(0.0699029 0.0610559 0)
(0.0633737 0.0638186 0)
(0.0728571 -0.0714708 0)
(0.0799181 -0.0672001 0)
(0.0889206 -0.0624945 0)
(0.0976535 -0.0557444 0)
(0.105704 -0.0469986 0)
(0.112599 -0.0364022 0)
(0.117873 -0.0242396 0)
(0.121126 -0.0109439 0)
(0.122094 0.00289757 0)
(0.120707 0.0166274 0)
(0.117074 0.0295905 0)
(0.111489 0.0412203 0)
(0.104391 0.0511362 0)
(0.0962554 0.0591254 0)
(0.0875385 0.0651118 0)
(0.0786097 0.0691384 0)
(0.0715714 0.0730302 0)
(0.0824075 -0.0795087 0)
(0.0899826 -0.0738546 0)
(0.0990564 -0.0674855 0)
(0.107684 -0.0592131 0)
(0.115473 -0.0491329 0)
(0.122013 -0.0374111 0)
(0.126904 -0.0243211 0)
(0.129817 -0.0102746 0)
(0.130557 0.00420884 0)
(0.129069 0.0185499 0)
(0.125456 0.0321794 0)
(0.119979 0.04461 0)
(0.113013 0.0555062 0)
(0.104967 0.0646669 0)
(0.0962497 0.0719912 0)
(0.0871901 0.0774849 0)
(0.0795705 0.0826016 0)
(0.0922969 -0.0870871 0)
(0.10038 -0.0798882 0)
(0.10942 -0.0717028 0)
(0.117797 -0.061836 0)
(0.125159 -0.0504254 0)
(0.131179 -0.0376327 0)
(0.135555 -0.0237292 0)
(0.138046 -0.00907232 0)
(0.138508 0.00590079 0)
(0.136909 0.0207084 0)
(0.133345 0.0348838 0)
(0.128029 0.0480418 0)
(0.121255 0.0598958 0)
(0.113351 0.0702474 0)
(0.104645 0.078977 0)
(0.0954239 0.0860505 0)
(0.0871133 0.0924919 0)
(0.102451 -0.0937733 0)
(0.111031 -0.0848153 0)
(0.119899 -0.0746931 0)
(0.127823 -0.0632288 0)
(0.134551 -0.0505445 0)
(0.139875 -0.036804 0)
(0.143596 -0.0222603 0)
(0.145561 -0.00720311 0)
(0.145684 0.0080383 0)
(0.14396 0.0231097 0)
(0.140462 0.0376747 0)
(0.135343 0.0514502 0)
(0.128799 0.0642002 0)
(0.121059 0.0757389 0)
(0.11236 0.0859318 0)
(0.102927 0.0947052 0)
(0.093768 0.102598 0)
(0.112358 -0.098556 0)
(0.121416 -0.087618 0)
(0.129808 -0.0756559 0)
(0.137 -0.0627557 0)
(0.142875 -0.049038 0)
(0.147328 -0.0346533 0)
(0.150269 -0.0197882 0)
(0.151634 -0.00464501 0)
(0.151389 0.010572 0)
(0.149539 0.0256497 0)
(0.146123 0.0403845 0)
(0.141216 0.0545839 0)
(0.134913 0.0680781 0)
(0.127332 0.0807106 0)
(0.118603 0.0923496 0)
(0.108863 0.102887 0)
(0.0985475 0.112412 0)
(0.117426 -0.100529 0)
(0.126714 -0.0885355 0)
(0.134781 -0.075689 0)
(0.141551 -0.0621137 0)
(0.146958 -0.0479401 0)
(0.150949 -0.0333049 0)
(0.153487 -0.0183489 0)
(0.154546 -0.00321623 0)
(0.154117 0.0119474 0)
(0.152204 0.026996 0)
(0.148825 0.0417847 0)
(0.144013 0.0561709 0)
(0.137814 0.0700161 0)
(0.130287 0.0831871 0)
(0.121506 0.0955569 0)
(0.111555 0.107006 0)
(0.100529 0.117426 0)
(0 0 0)
(0 0 0)
(0 0 0)
(0 0 0)
(0 0 0)
(0 0 0)
(0 0 0)
(0 0 0)
(0 0 0)
(0 0 0)
(0 0 0)
(0 0 0)
(0 0 0)
(0 0 0)
(0 0 0)
(0 0 0)
(0.00350619 0.0035705 0)
(0.00470202 0.00532199 0)
(0.00538856 0.00711378 0)
(0.00549483 0.00889643 0)
(0.00498183 0.0105752 0)
(0.00387582 0.0120418 0)
(0.00225363 0.0131263 0)
(0.00028814 0.0136857 0)
(-0.00172403 0.0135398 0)
(-0.0034658 0.0126022 0)
(-0.0047029 0.0110947 0)
(-0.00531247 0.00927423 0)
(-0.00528322 0.00735356 0)
(-0.00463975 0.00544879 0)
(-0.0034329 0.00357592 0)
(-0.00263348 0.0025971 0)
(0.00796467 0.00825951 0)
(0.0099282 0.0115535 0)
(0.0109114 0.0148961 0)
(0.0108268 0.0182097 0)
(0.00962785 0.0213173 0)
(0.00736804 0.0239875 0)
(0.00420176 0.0259212 0)
(0.000456874 0.0268747 0)
(-0.00335213 0.0265633 0)
(-0.00668727 0.0248869 0)
(-0.009136 0.0221823 0)
(-0.0104797 0.0188727 0)
(-0.010674 0.0153274 0)
(-0.00975354 0.0117795 0)
(-0.00778465 0.00828379 0)
(-0.00649059 0.00643266 0)
(0.0131795 0.0138901 0)
(0.015487 0.0184784 0)
(0.0164261 0.0231288 0)
(0.0159068 0.0277173 0)
(0.0138897 0.0319903 0)
(0.010462 0.0356151 0)
(0.00585385 0.0381986 0)
(0.000517277 0.0394047 0)
(-0.00488284 0.0389127 0)
(-0.00965791 0.0366577 0)
(-0.0132731 0.0330304 0)
(-0.0154361 0.0285512 0)
(-0.016065 0.0236942 0)
(-0.015182 0.0187784 0)
(-0.0128614 0.013927 0)
(-0.0113521 0.0112896 0)
(0.0190107 0.0203329 0)
(0.0212931 0.0259992 0)
(0.021893 0.0317271 0)
(0.0207363 0.0373577 0)
(0.0178015 0.0425685 0)
(0.0132069 0.0469333 0)
(0.00724773 0.0499851 0)
(0.000475505 0.0513331 0)
(-0.0063441 0.0506642 0)
(-0.0124318 0.0479631 0)
(-0.0171712 0.0436385 0)
(-0.0202137 0.0382558 0)
(-0.0214397 0.0323541 0)
(-0.0208605 0.0263327 0)
(-0.0185462 0.0203743 0)
(-0.0170878 0.0170322 0)
(0.0253325 0.0274711 0)
(0.027261 0.0340132 0)
(0.0272784 0.0406246 0)
(0.0253228 0.0470915 0)
(0.0213903 0.0530253 0)
(0.0156328 0.0579372 0)
(0.00840701 0.0613137 0)
(0.00033413 0.0627275 0)
(-0.00776325 0.0618938 0)
(-0.0150542 0.0588453 0)
(-0.0208761 0.0539988 0)
(-0.0248393 0.0479341 0)
(-0.0267942 0.0412275 0)
(-0.0267356 0.0343323 0)
(-0.0247358 0.0274947 0)
(-0.0235613 0.023514 0)
(0.0320188 0.0351873 0)
(0.0333204 0.0424423 0)
(0.0325503 0.0497587 0)
(0.0296608 0.0568742 0)
(0.0246719 0.0633484 0)
(0.0177665 0.0686427 0)
(0.00934927 0.0722132 0)
(8.93087e-05 0.0736292 0)
(-0.00916501 0.0726468 0)
(-0.0175677 0.0693398 0)
(-0.0244324 0.0641166 0)
(-0.0293437 0.0575521 0)
(-0.0321276 0.0502412 0)
(-0.0327684 0.042679 0)
(-0.031339 0.0351585 0)
(-0.0306544 0.0306003 0)
(0.0389602 0.0433888 0)
(0.0394011 0.0512114 0)
(0.0376751 0.0590849 0)
(0.0337466 0.0666847 0)
(0.0276553 0.073526 0)
(0.0196182 0.0790509 0)
(0.0100803 0.0827128 0)
(-0.000266062 0.0840879 0)
(-0.010575 0.0829741 0)
(-0.0200085 0.0794761 0)
(-0.0278785 0.0739908 0)
(-0.0337555 0.067081 0)
(-0.0374494 0.0593397 0)
(-0.0389322 0.0512828 0)
(-0.0382799 0.0432447 0)
(-0.0382532 0.0381507 0)
(0.0460533 0.0520009 0)
(0.0454412 0.0602757 0)
(0.0426169 0.0685651 0)
(0.0375586 0.0764933 0)
(0.0303346 0.0835551 0)
(0.0211919 0.0891824 0)
(0.0106004 0.0928368 0)
(-0.000743103 0.0941288 0)
(-0.0120168 0.0929014 0)
(-0.022412 0.0892764 0)
(-0.0312519 0.0836309 0)
(-0.0381062 0.0765011 0)
(-0.0427722 0.0684706 0)
(-0.0452115 0.060062 0)
(-0.0455053 0.0516412 0)
(-0.046284 0.0460517 0)
(0.0532118 0.0609904 0)
(0.0513739 0.0696073 0)
(0.0473265 0.0781786 0)
(0.0410681 0.0862975 0)
(0.032693 0.0934338 0)
(0.022475 0.0990355 0)
(0.0108968 0.102603 0)
(-0.00136145 0.103785 0)
(-0.0135184 0.10246 0)
(-0.024808 0.0987563 0)
(-0.0345838 0.0930303 0)
(-0.0424223 0.0857891 0)
(-0.0481125 0.0775839 0)
(-0.0516094 0.0689476 0)
(-0.0530021 0.0602652 0)
(-0.0547028 0.0541964 0)
(0.0603363 0.0703458 0)
(0.0571192 0.0792042 0)
(0.0517379 0.0879288 0)
(0.0442209 0.0960826 0)
(0.0346907 0.103157 0)
(0.0234368 0.108624 0)
(0.0109425 0.112024 0)
(-0.00214614 0.113062 0)
(-0.0151063 0.11165 0)
(-0.0272285 0.107916 0)
(-0.0379044 0.102185 0)
(-0.0467304 0.0949138 0)
(-0.0534961 0.0866464 0)
(-0.0581518 0.0778912 0)
(-0.0607681 0.0690282 0)
(-0.0634996 0.062487 0)
(0.0673025 0.0800669 0)
(0.0625581 0.0890712 0)
(0.0557457 0.0978125 0)
(0.0469311 0.105859 0)
(0.0362518 0.112724 0)
(0.0240186 0.117931 0)
(0.0106922 0.121092 0)
(-0.00313996 0.12196 0)
(-0.0168208 0.12047 0)
(-0.0297044 0.116741 0)
(-0.0412384 0.111058 0)
(-0.0510556 0.103857 0)
(-0.0589519 0.0956235 0)
(-0.0648552 0.0868278 0)
(-0.0688238 0.0778441 0)
(-0.0726783 0.0707971 0)
(0.0739238 0.0901418 0)
(0.0675128 0.0992035 0)
(0.0591921 0.107829 0)
(0.0490461 0.115606 0)
(0.0372511 0.12211 0)
(0.0241188 0.126944 0)
(0.010059 0.129785 0)
(-0.00440631 0.130441 0)
(-0.0187068 0.128868 0)
(-0.0322636 0.125177 0)
(-0.0446092 0.119621 0)
(-0.0554172 0.11257 0)
(-0.0644867 0.104447 0)
(-0.0717333 0.0956677 0)
(-0.0771638 0.08657 0)
(-0.0822378 0.0789537 0)
(0.0799165 0.100542 0)
(0.0717099 0.10956 0)
(0.0618096 0.117918 0)
(0.0503381 0.125261 0)
(0.0374998 0.13125 0)
(0.0235733 0.135581 0)
(0.00891589 0.138016 0)
(-0.00604068 0.138415 0)
(-0.0208135 0.136758 0)
(-0.0349323 0.133137 0)
(-0.0480193 0.127764 0)
(-0.0598045 0.120927 0)
(-0.0700855 0.112974 0)
(-0.0787511 0.104228 0)
(-0.0857672 0.0949882 0)
(-0.0921688 0.0866913 0)
(0.0848181 0.111159 0)
(0.0746945 0.119999 0)
(0.0632036 0.127901 0)
(0.0504867 0.134614 0)
(0.0367258 0.139913 0)
(0.0221711 0.143606 0)
(0.00711857 0.14554 0)
(-0.00811375 0.14563 0)
(-0.0231606 0.143873 0)
(-0.0376901 0.140344 0)
(-0.0514258 0.135192 0)
(-0.0641329 0.128618 0)
(-0.0756337 0.120849 0)
(-0.0857857 0.112133 0)
(-0.0945199 0.102697 0)
(-0.102389 0.0935496 0)
(0.0876174 0.121462 0)
(0.075655 0.129841 0)
(0.0627452 0.137026 0)
(0.0490207 0.142893 0)
(0.0346292 0.147338 0)
(0.019763 0.150271 0)
(0.00462035 0.151627 0)
(-0.0105921 0.151373 0)
(-0.025663 0.149512 0)
(-0.0403857 0.146089 0)
(-0.0545744 0.141172 0)
(-0.0680551 0.134861 0)
(-0.0806769 0.12727 0)
(-0.0923031 0.118539 0)
(-0.102827 0.108799 0)
(-0.112345 0.0984878 0)
(0.0885355 0.126714 0)
(0.075689 0.134781 0)
(0.0621137 0.141551 0)
(0.0479401 0.146958 0)
(0.0333049 0.150949 0)
(0.0183489 0.153487 0)
(0.00321623 0.154546 0)
(-0.0119474 0.154117 0)
(-0.026996 0.152204 0)
(-0.0417847 0.148825 0)
(-0.0561709 0.144013 0)
(-0.0700161 0.137814 0)
(-0.0831871 0.130287 0)
(-0.0955569 0.121506 0)
(-0.107006 0.111555 0)
(-0.117426 0.100529 0)
(0 0 0)
(0 0 0)
(0 0 0)
(0 0 0)
(0 0 0)
(0 0 0)
(0 0 0)
(0 0 0)
(0 0 0)
(0 0 0)
(0 0 0)
(0 0 0)
(0 0 0)
(0 0 0)
(0 0 0)
(0 0 0)
(0.00350619 0.0035705 0)
(0.00470202 0.00532199 0)
(0.00538856 0.00711378 0)
(0.00549483 0.00889643 0)
(0.00498183 0.0105752 0)
(0.00387582 0.0120418 0)
(0.00225363 0.0131263 0)
(0.00028814 0.0136857 0)
(-0.00172403 0.0135398 0)
(-0.0034658 0.0126022 0)
(-0.0047029 0.0110947 0)
(-0.00531247 0.00927423 0)
(-0.00528322 0.00735356 0)
(-0.00463975 0.00544879 0)
(-0.0034329 0.00357592 0)
(-0.00263348 0.0025971 0)
(0.00796467 0.00825951 0)
(0.0099282 0.0115535 0)
(0.0109114 0.0148961 0)
(0.0108268 0.0182097 0)
(0.00962785 0.0213173 0)
(0.00736804 0.0239875 0)
(0.00420176 0.0259212 0)
(0.000456874 0.0268747 0)
(-0.00335213 0.0265633 0)
(-0.00668727 0.0248869 0)
(-0.009136 0.0221823 0)
(-0.0104797 0.0188727 0)
(-0.010674 0.0153274 0)
(-0.00975354 0.0117795 0)
(-0.00778465 0.00828379 0)
(-0.00649059 0.00643266 0)
(0.0131795 0.0138901 0)
(0.015487 0.0184784 0)
(0.0164261 0.0231288 0)
(0.0159068 0.0277173 0)
(0.0138897 0.0319903 0)
(0.010462 0.0356151 0)
(0.00585385 0.0381986 0)
(0.000517277 0.0394047 0)
(-0.00488284 0.0389127 0)
(-0.00965791 0.0366577 0)
(-0.0132731 0.0330304 0)
(-0.0154361 0.0285512 0)
(-0.016065 0.0236942 0)
(-0.015182 0.0187784 0)
(-0.0128614 0.013927 0)
(-0.0113521 0.0112896 0)
(0.0190107 0.0203329 0)
(0.0212931 0.0259992 0)
(0.021893 0.0317271 0)
(0.0207363 0.0373577 0)
(0.0178015 0.0425685 0)
(0.0132069 0.0469333 0)
(0.00724773 0.0499851 0)
(0.000475505 0.0513331 0)
(-0.0063441 0.0506642 0)
(-0.0124318 0.0479631 0)
(-0.0171712 0.0436385 0)
(-0.0202137 0.0382558 0)
(-0.0214397 0.0323541 0)
(-0.0208605 0.0263327 0)
(-0.0185462 0.0203743 0)
(-0.0170878 0.0170322 0)
(0.0253325 0.0274711 0)
(0.027261 0.0340132 0)
(0.0272784 0.0406246 0)
(0.0253228 0.0470915 0)
(0.0213903 0.0530253 0)
(0.0156328 0.0579372 0)
(0.00840701 0.0613137 0)
(0.00033413 0.0627275 0)
(-0.00776325 0.0618938 0)
(-0.0150542 0.0588453 0)
(-0.0208761 0.0539988 0)
(-0.0248393 0.0479341 0)
(-0.0267942 0.0412275 0)
(-0.0267356 0.0343323 0)
(-0.0247358 0.0274947 0)
(-0.0235613 0.023514 0)
(0.0320188 0.0351873 0)
(0.0333204 0.0424423 0)
(0.0325503 0.0497587 0)
(0.0296608 0.0568742 0)
(0.0246719 0.0633484 0)
(0.0177665 0.0686427 0)
(0.00934927 0.0722132 0)
(8.93087e-05 0.0736292 0)
(-0.00916501 0.0726468 0)
(-0.0175677 0.0693398 0)
(-0.0244324 0.0641166 0)
(-0.0293437 0.0575521 0)
(-0.0321276 0.0502412 0)
(-0.0327684 0.042679 0)
(-0.031339 0.0351585 0)
(-0.0306544 0.0306003 0)
(0.0389602 0.0433888 0)
(0.0394011 0.0512114 0)
(0.0376751 0.0590849 0)
(0.0337466 0.0666847 0)
(0.0276553 0.073526 0)
(0.0196182 0.0790509 0)
(0.0100803 0.0827128 0)
(-0.000266062 0.0840879 0)
(-0.010575 0.0829741 0)
(-0.0200085 0.0794761 0)
(-0.0278785 0.0739908 0)
(-0.0337555 0.067081 0)
(-0.0374494 0.0593397 0)
(-0.0389322 0.0512828 0)
(-0.0382799 0.0432447 0)
(-0.0382532 0.0381507 0)
(0.0460533 0.0520009 0)
(0.0454412 0.0602757 0)
(0.0426169 0.0685651 0)
(0.0375586 0.0764933 0)
(0.0303346 0.0835551 0)
(0.0211919 0.0891824 0)
(0.0106004 0.0928368 0)
(-0.000743103 0.0941288 0)
(-0.0120168 0.0929014 0)
(-0.022412 0.0892764 0)
(-0.0312519 0.0836309 0)
(-0.0381062 0.0765011 0)
(-0.0427722 0.0684706 0)
(-0.0452115 0.060062 0)
(-0.0455053 0.0516412 0)
(-0.046284 0.0460517 0)
(0.0532118 0.0609904 0)
(0.0513739 0.0696073 0)
(0.0473265 0.0781786 0)
(0.0410681 0.0862975 0)
(0.032693 0.0934338 0)
(0.022475 0.0990355 0)
(0.0108968 0.102603 0)
(-0.00136145 0.103785 0)
(-0.0135184 0.10246 0)
(-0.024808 0.0987563 0)
(-0.0345838 0.0930303 0)
(-0.0424223 0.0857891 0)
(-0.0481125 0.0775839 0)
(-0.0516094 0.0689476 0)
(-0.0530021 0.0602652 0)
(-0.0547028 0.0541964 0)
(0.0603363 0.0703458 0)
(0.0571192 0.0792042 0)
(0.0517379 0.0879288 0)
(0.0442209 0.0960826 0)
(0.0346907 0.103157 0)
(0.0234368 0.108624 0)
(0.0109425 0.112024 0)
(-0.00214614 0.113062 0)
(-0.0151063 0.11165 0)
(-0.0272285 0.107916 0)
(-0.0379044 0.102185 0)
(-0.0467304 0.0949138 0)
(-0.0534961 0.0866464 0)
(-0.0581518 0.0778912 0)
(-0.0607681 0.0690282 0)
(-0.0634996 0.062487 0)
(0.0673025 0.0800669 0)
(0.0625581 0.0890712 0)
(0.0557457 0.0978125 0)
(0.0469311 0.105859 0)
(0.0362518 0.112724 0)
(0.0240186 0.117931 0)
(0.0106922 0.121092 0)
(-0.00313996 0.12196 0)
(-0.0168208 0.12047 0)
(-0.0297044 0.116741 0)
(-0.0412384 0.111058 0)
(-0.0510556 0.103857 0)
(-0.0589519 0.0956235 0)
(-0.0648552 0.0868278 0)
(-0.0688238 0.0778441 0)
(-0.0726783 0.0707971 0)
(0.0739238 0.0901418 0)
(0.0675128 0.0992035 0)
(0.0591921 0.107829 0)
(0.0490461 0.115606 0)
(0.0372511 0.12211 0)
(0.0241188 0.126944 0)
(0.010059 0.129785 0)
(-0.00440631 0.130441 0)
(-0.0187068 0.128868 0)
(-0.0322636 0.125177 0)
(-0.0446092 0.119621 0)
(-0.0554172 0.11257 0)
(-0.0644867 0.104447 0)
(-0.0717333 0.0956677 0)
(-0.0771638 0.08657 0)
(-0.0822378 0.0789537 0)
(0.0799165 0.100542 0)
(0.0717099 0.10956 0)
(0.0618096 0.117918 0)
(0.0503381 0.125261 0)
(0.0374998 0.13125 0)
(0.0235733 0.135581 0)
(0.00891589 0.138016 0)
(-0.00604068 0.138415 0)
(-0.0208135 0.136758 0)
(-0.0349323 0.133137 0)
(-0.0480193 0.127764 0)
(-0.0598045 0.120927 0)
(-0.0700855 0.112974 0)
(-0.0787511 0.104228 0)
(-0.0857672 0.0949882 0)
(-0.0921688 0.0866913 0)
(0.0848181 0.111159 0)
(0.0746945 0.119999 0)
(0.0632036 0.127901 0)
(0.0504867 0.134614 0)
(0.0367258 0.139913 0)
(0.0221711 0.143606 0)
(0.00711857 0.14554 0)
(-0.00811375 0.14563 0)
(-0.0231606 0.143873 0)
(-0.0376901 0.140344 0)
(-0.0514258 0.135192 0)
(-0.0641329 0.128618 0)
(-0.0756337 0.120849 0)
(-0.0857857 0.112133 0)
(-0.0945199 0.102697 0)
(-0.102389 0.0935496 0)
(0.0876174 0.121462 0)
(0.075655 0.129841 0)
(0.0627452 0.137026 0)
(0.0490207 0.142893 0)
(0.0346292 0.147338 0)
(0.019763 0.150271 0)
(0.00462035 0.151627 0)
(-0.0105921 0.151373 0)
(-0.025663 0.149512 0)
(-0.0403857 0.146089 0)
(-0.0545744 0.141172 0)
(-0.0680551 0.134861 0)
(-0.0806769 0.12727 0)
(-0.0923031 0.118539 0)
(-0.102827 0.108799 0)
(-0.112345 0.0984878 0)
(0.0885355 0.126714 0)
(0.075689 0.134781 0)
(0.0621137 0.141551 0)
(0.0479401 0.146958 0)
(0.0333049 0.150949 0)
(0.0183489 0.153487 0)
(0.00321623 0.154546 0)
(-0.0119474 0.154117 0)
(-0.026996 0.152204 0)
(-0.0417847 0.148825 0)
(-0.0561709 0.144013 0)
(-0.0700161 0.137814 0)
(-0.0831871 0.130287 0)
(-0.0955569 0.121506 0)
(-0.107006 0.111555 0)
(-0.117426 0.100529 0)
(0 0 0)
(0 0 0)
(0 0 0)
(0 0 0)
(0 0 0)
(0 0 0)
(0 0 0)
(0 0 0)
(0 0 0)
(0 0 0)
(0 0 0)
(0 0 0)
(0 0 0)
(0 0 0)
(0 0 0)
(0 0 0)
(-0.00354692 0.00336265 0)
(-0.00527327 0.00452098 0)
(-0.0070111 0.0051696 0)
(-0.00876704 0.00527393 0)
(-0.0104793 0.00480804 0)
(-0.0119851 0.00375241 0)
(-0.0131621 0.00218458 0)
(-0.0137946 0.000272407 0)
(-0.0136761 -0.00173548 0)
(-0.0128231 -0.00351684 0)
(-0.0113899 -0.00480164 0)
(-0.00959455 -0.0054367 0)
(-0.00763655 -0.00538371 0)
(-0.00566085 -0.00469481 0)
(-0.00373166 -0.00346174 0)
(-0.00272156 -0.00265469 0)
(-0.00820894 0.0076594 0)
(-0.011452 0.00956212 0)
(-0.0147151 0.0104984 0)
(-0.0180046 0.0104323 0)
(-0.021154 0.00931638 0)
(-0.023885 0.00714661 0)
(-0.0259722 0.0040817 0)
(-0.0270501 0.00042899 0)
(-0.0268041 -0.00337039 0)
(-0.0252619 -0.00676697 0)
(-0.022679 -0.00929564 0)
(-0.0194232 -0.0106848 0)
(-0.0158375 -0.0108491 0)
(-0.0121936 -0.0098621 0)
(-0.008609 -0.00784788 0)
(-0.00670664 -0.00653762 0)
(-0.0138058 0.0127074 0)
(-0.0183321 0.0149518 0)
(-0.0229056 0.0158606 0)
(-0.027473 0.0153845 0)
(-0.0317887 0.0134793 0)
(-0.0354932 0.0101774 0)
(-0.0382473 0.00570617 0)
(-0.0396061 0.000484581 0)
(-0.0392223 -0.00490023 0)
(-0.0371311 -0.00974817 0)
(-0.0336528 -0.0134621 0)
(-0.0292478 -0.0156822 0)
(-0.0243671 -0.0162864 0)
(-0.0193686 -0.0153376 0)
(-0.0144223 -0.0129638 0)
(-0.0117232 -0.0114327 0)
(-0.0202117 0.0183815 0)
(-0.0258182 0.0206162 0)
(-0.031484 0.0212149 0)
(-0.0371042 0.0201323 0)
(-0.0423519 0.0173328 0)
(-0.0467972 0.0128901 0)
(-0.0500192 0.00709395 0)
(-0.0515381 0.000449591 0)
(-0.0510116 -0.00635227 0)
(-0.0484852 -0.0125167 0)
(-0.0443178 -0.0173622 0)
(-0.039028 -0.0204705 0)
(-0.0331374 -0.0216873 0)
(-0.0270664 -0.0210561 0)
(-0.0210263 -0.0186911 0)
(-0.0176245 -0.01721 0)
(-0.027313 0.0245693 0)
(-0.0338051 0.0264773 0)
(-0.0403738 0.0265295 0)
(-0.0468342 0.0246749 0)
(-0.0528018 0.0208984 0)
(-0.0577974 0.015318 0)
(-0.0613328 0.00827146 0)
(-0.0629223 0.000327639 0)
(-0.0622543 -0.0077543 0)
(-0.0593864 -0.0151252 0)
(-0.0546983 -0.0210563 0)
(-0.0487403 -0.0250919 0)
(-0.0420773 -0.0270544 0)
(-0.0351721 -0.0269636 0)
(-0.0282792 -0.0249232 0)
(-0.0242491 -0.0237295 0)
(-0.034993 0.0311558 0)
(-0.0422106 0.0324708 0)
(-0.0494994 0.0317696 0)
(-0.0566175 0.0290091 0)
(-0.0631238 0.024195 0)
(-0.068494 0.0174837 0)
(-0.0722127 0.00925226 0)
(-0.0738077 0.000114514 0)
(-0.0730033 -0.0091322 0)
(-0.0698719 -0.017617 0)
(-0.064801 -0.0245903 0)
(-0.0583553 -0.0295803 0)
(-0.0511193 -0.0323905 0)
(-0.0435838 -0.0330209 0)
(-0.036041 -0.031566 0)
(-0.0314505 -0.0308692 0)
(-0.0431585 0.0380392 0)
(-0.0509541 0.0385282 0)
(-0.0588116 0.0369037 0)
(-0.0664178 0.0331254 0)
(-0.0732942 0.0272256 0)
(-0.0788976 0.0193965 0)
(-0.0826973 0.0100415 0)
(-0.0842472 -0.000199153 0)
(-0.0833128 -0.010513 0)
(-0.0799824 -0.0200325 0)
(-0.074644 -0.0280106 0)
(-0.0678574 -0.0339715 0)
(-0.0602109 -0.0377084 0)
(-0.0522112 -0.0392019 0)