/*--------------------------------*- C++ -*----------------------------------*\
| =========                 |                                                 |
| \\      /  F ield         | OpenFOAM: The Open Source CFD Toolbox           |
|  \\    /   O peration     | Version:  2412                                  |
|   \\  /    A nd           | Website:  www.openfoam.com                      |
|    \\/     M anipulation  |                                                 |
\*---------------------------------------------------------------------------*/
FoamFile
{
    version     2.0;
    format      ascii;
    arch        "LSB;label=32;scalar=64";
    class       volVectorField;
    location    "0.2";
    object      cellDisplacement;
}
// * * * * * * * * * * * * * * * * * * * * * * * * * * * * * * * * * * * * * //

dimensions      [0 1 0 0 0 0 0];

internalField   nonuniform List<vector> 
256
(
(0.00699429 0.0003745 0)
(0.00673564 0.00141905 0)
(0.00608205 0.00222823 0)
(0.00516286 0.00269525 0)
(0.00413735 0.00278744 0)
(0.00303282 0.00246726 0)
(0.00204108 0.00190523 0)
(0.00103456 0.00105891 0)
(0.0206566 0.00114558 0)
(0.0199373 0.00407841 0)
(0.0182066 0.00641304 0)
(0.0157766 0.00788437 0)
(0.0129517 0.00833165 0)
(0.0100807 0.00785935 0)
(0.00719801 0.00646677 0)
(0.00444591 0.0044092 0)
(0.0336463 0.0019288 0)
(0.032503 0.0065148 0)
(0.0299115 0.0102502 0)
(0.0262718 0.0127271 0)
(0.0220652 0.0137659 0)
(0.0176001 0.0133169 0)
(0.0132812 0.0116529 0)
(0.00901015 0.0087947 0)
(0.0459385 0.00271608 0)
(0.044411 0.00876111 0)
(0.0411457 0.0137809 0)
(0.0365799 0.0172735 0)
(0.0312305 0.0189758 0)
(0.025652 0.0189545 0)
(0.020039 0.0172366 0)
(0.0145608 0.0140411 0)
(0.0576521 0.00352531 0)
(0.0558182 0.0108803 0)
(0.0520202 0.0170931 0)
(0.0467289 0.0215873 0)
(0.0405661 0.0241183 0)
(0.0339709 0.0245897 0)
(0.0274479 0.0232315 0)
(0.0209846 0.0200632 0)
(0.0688037 0.00435566 0)
(0.0667078 0.0128974 0)
(0.0625036 0.0202175 0)
(0.0566956 0.025721 0)
(0.0498539 0.0290881 0)
(0.0426246 0.030341 0)
(0.0352892 0.0294727 0)
(0.0280835 0.0266725 0)
(0.0794629 0.00523044 0)
(0.0771722 0.0148559 0)
(0.0726733 0.0232202 0)
(0.0664722 0.0297038 0)
(0.0592141 0.0340299 0)
(0.0513834 0.0360636 0)
(0.0435316 0.0359773 0)
(0.035762 0.0338199 0)
(0.0896693 0.00616222 0)
(0.0872097 0.0167765 0)
(0.0825092 0.0261245 0)
(0.0760709 0.0335928 0)
(0.0684583 0.0388524 0)
(0.0603228 0.0418799 0)
(0.0520104 0.042645 0)
(0.0438145 0.0413304 0)
(0.0994417 0.00717342 0)
(0.096876 0.0186986 0)
(0.0920543 0.0289764 0)
(0.0854573 0.0373984 0)
(0.0777005 0.0436911 0)
(0.0692577 0.0476843 0)
(0.0606796 0.0494992 0)
(0.0522018 0.0492327 0)
(0.108827 0.00828484 0)
(0.106175 0.0206501 0)
(0.101298 0.0318001 0)
(0.0946667 0.0411844 0)
(0.0867828 0.0484664 0)
(0.0782353 0.0535924 0)
(0.069476 0.0565207 0)
(0.0607481 0.0574421 0)
(0.117807 0.00954386 0)
(0.115116 0.0226569 0)
(0.110253 0.0346384 0)
(0.103629 0.0449394 0)
(0.0957786 0.0532974 0)
(0.0871987 0.0595459 0)
(0.0782981 0.0637581 0)
(0.0694462 0.0659822 0)
(0.126395 0.0109752 0)
(0.123684 0.0247702 0)
(0.118871 0.0375083 0)
(0.112382 0.0487235 0)
(0.10463 0.0581328 0)
(0.0960699 0.0656358 0)
(0.0871445 0.0711734 0)
(0.0780805 0.0748846 0)
(0.13451 0.0126645 0)
(0.131794 0.0270056 0)
(0.127126 0.0404395 0)
(0.120824 0.0525087 0)
(0.113247 0.0630292 0)
(0.104799 0.0718048 0)
(0.09579 0.0788282 0)
(0.0865323 0.0841114 0)
(0.142025 0.0146092 0)
(0.139323 0.0294066 0)
(0.134844 0.043381 0)
(0.128777 0.0563195 0)
(0.121457 0.0678979 0)
(0.113088 0.0780611 0)
(0.104041 0.0866357 0)
(0.0944618 0.0936957 0)
(0.148559 0.0169412 0)
(0.145895 0.0319156 0)
(0.141598 0.0463505 0)
(0.135838 0.0599724 0)
(0.128724 0.0726499 0)
(0.120515 0.0841597 0)
(0.111315 0.0944592 0)
(0.10141 0.103403 0)
(0.153161 0.0194717 0)
(0.150515 0.0343904 0)
(0.146419 0.0489778 0)
(0.140913 0.0630935 0)
(0.134051 0.0766016 0)
(0.125897 0.089372 0)
(0.116531 0.101282 0)
(0.106042 0.112216 0)
(0.00104301 0.00102585 0)
(0.00188256 0.00196166 0)
(0.00242807 0.00284424 0)
(0.00274456 0.00382806 0)
(0.00272269 0.0047773 0)
(0.00233753 0.00558487 0)
(0.00165781 0.00629556 0)
(0.000711779 0.00682726 0)
(0.00444581 0.00443601 0)
(0.00643564 0.00692146 0)
(0.00778848 0.00956479 0)
(0.00830515 0.0121819 0)
(0.0079529 0.0147167 0)
(0.00672517 0.0170831 0)
(0.00466352 0.019035 0)
(0.00191033 0.0202085 0)
(0.00882819 0.00887117 0)
(0.011647 0.0128504 0)
(0.0132783 0.0168168 0)
(0.0137383 0.0209012 0)
(0.0128709 0.0248452 0)
(0.0106612 0.0283598 0)
(0.00725551 0.0311992 0)
(0.00288824 0.0330515 0)
(0.0141807 0.0143812 0)
(0.0172685 0.0194405 0)
(0.0189354 0.0246709 0)
(0.0190066 0.0298892 0)
(0.01743 0.0349081 0)
(0.0142262 0.0394654 0)
(0.00952437 0.043073 0)
(0.00366413 0.0452377 0)
(0.0202218 0.020664 0)
(0.0233197 0.0267604 0)
(0.0246089 0.0328805 0)
(0.024118 0.0390979 0)
(0.0217191 0.0450669 0)
(0.0174355 0.0503273 0)
(0.0114838 0.0544251 0)
(0.00426908 0.0569423 0)
(0.0269299 0.0277444 0)
(0.0295814 0.0345259 0)
(0.0303322 0.0415159 0)
(0.0290493 0.048476 0)
(0.0256977 0.0551039 0)
(0.020338 0.0609777 0)
(0.0131803 0.0654977 0)
(0.00471233 0.0680917 0)
(0.0340481 0.0353478 0)
(0.0360776 0.04282 0)
(0.0359848 0.0503762 0)
(0.0337927 0.0579703 0)
(0.0294194 0.0651653 0)
(0.022937 0.0713921 0)
(0.014624 0.0760985 0)
(0.00500085 0.0788227 0)
(0.041554 0.0435119 0)
(0.0426246 0.051406 0)
(0.0415836 0.0595373 0)
(0.0383261 0.0675699 0)
(0.0328459 0.0750826 0)
(0.0252486 0.0815791 0)
(0.0158231 0.0864352 0)
(0.00512878 0.089093 0)
(0.0492433 0.052044 0)
(0.0492397 0.0603929 0)
(0.0470257 0.0688576 0)
(0.0426161 0.0772179 0)
(0.0359831 0.0849846 0)
(0.0272591 0.0915532 0)
(0.0167735 0.0963644 0)
(0.00508392 0.0989915 0)
(0.057107 0.0610122 0)
(0.0557652 0.0696434 0)
(0.0522903 0.0784144 0)
(0.0466139 0.0869546 0)
(0.0387816 0.0947551 0)
(0.0289416 0.101303 0)
(0.0174374 0.106044 0)
(0.00484294 0.108495 0)
(0.0649485 0.070359 0)
(0.0621708 0.0792494 0)
(0.057251 0.0881681 0)
(0.0502388 0.0967405 0)
(0.0411786 0.104491 0)
(0.0302365 0.110868 0)
(0.0177859 0.115364 0)
(0.00436805 0.117657 0)
(0.0726939 0.0801108 0)
(0.0682506 0.089186 0)
(0.0617871 0.0981726 0)
(0.0533721 0.106645 0)
(0.043054 0.114144 0)
(0.0310474 0.1202 0)
(0.0177376 0.124411 0)
(0.00359479 0.126425 0)
(0.0800671 0.0902873 0)
(0.0738148 0.0995094 0)
(0.0656822 0.108423 0)
(0.0558018 0.11662 0)
(0.0442029 0.123723 0)
(0.0312542 0.129322 0)
(0.0171478 0.133084 0)
(0.00243872 0.13479 0)
(0.0867636 0.100883 0)
(0.0784663 0.110174 0)
(0.0686072 0.118852 0)
(0.0571658 0.126609 0)
(0.0444587 0.1331 0)
(0.0305643 0.138074 0)
(0.0158997 0.141298 0)
(0.000722693 0.142592 0)
(0.0921121 0.11176 0)
(0.0816737 0.120968 0)
(0.0699476 0.129205 0)
(0.0571639 0.136243 0)
(0.0433676 0.141931 0)
(0.0288167 0.146112 0)
(0.013747 0.148649 0)
(-0.00156268 0.149463 0)
(0.0945324 0.12207 0)
(0.0821123 0.130748 0)
(0.0689014 0.138166 0)
(0.0550269 0.144255 0)
(0.0406225 0.148954 0)
(0.0258269 0.152218 0)
(0.0107826 0.154017 0)
(-0.00436561 0.154332 0)
)
;

boundaryField
{
    walls
    {
        type            cellMotion;
        value           uniform (0 0 0);
    }
    cylinder
    {
        type            cellMotion;
        value           nonuniform List<vector> 
16
(
(0.153161 0.0194717 0)
(0.150515 0.0343904 0)
(0.146419 0.0489778 0)
(0.140913 0.0630935 0)
(0.134051 0.0766016 0)
(0.125897 0.089372 0)
(0.116531 0.101282 0)
(0.106042 0.112216 0)
(0.0945324 0.12207 0)
(0.0821123 0.130748 0)
(0.0689014 0.138166 0)
(0.0550269 0.144255 0)
(0.0406225 0.148954 0)
(0.0258269 0.152218 0)
(0.0107826 0.154017 0)
(-0.00436561 0.154332 0)
)
;
    }
    outlet
    {
        type            cellMotion;
        value           uniform (0 0 0);
    }
    inlet
    {
        type            cellMotion;
        value           nonuniform List<vector> 0();
    }
    frontAndBack
    {
        type            empty;
    }
    procBoundary1to0
    {
        type            processor;
        value           nonuniform List<vector> 
16
(
(0.0069456 -0.00071684 0)
(0.0205096 -0.00191413 0)
(0.0334208 -0.00287228 0)
(0.0456613 -0.00362209 0)
(0.0573844 -0.00419456 0)
(0.0685587 -0.00460159 0)
(0.0792961 -0.00485069 0)
(0.0895734 -0.00494391 0)
(0.0994671 -0.00486563 0)
(0.108958 -0.00459376 0)
(0.118076 -0.00409958 0)
(0.126789 -0.00331964 0)
(0.135062 -0.00219377 0)
(0.14276 -0.000549584 0)
(0.149525 0.00163429 0)
(0.154332 0.00436561 0)
)
;
    }
    procBoundary1to3
    {
        type            processor;
        value           nonuniform List<vector> 
16
(
(-0.000379058 0.00700659 0)
(-0.00115187 0.0206639 0)
(-0.00191917 0.0335514 0)
(-0.00268356 0.0457681 0)
(-0.00346044 0.0573915 0)
(-0.00426243 0.0685022 0)
(-0.00510424 0.079109 0)
(-0.00600459 0.0893085 0)
(-0.00698345 0.0990728 0)
(-0.00807447 0.108496 0)
(-0.00930419 0.117492 0)
(-0.0107365 0.126144 0)
(-0.0124323 0.134304 0)
(-0.0144506 0.141905 0)
(-0.0168634 0.148519 0)
(-0.0194717 0.153161 0)
)
;
    }
}


// ************************************************************************* //
