/*--------------------------------*- C++ -*----------------------------------*\
| =========                 |                                                 |
| \\      /  F ield         | OpenFOAM: The Open Source CFD Toolbox           |
|  \\    /   O peration     | Version:  2412                                  |
|   \\  /    A nd           | Website:  www.openfoam.com                      |
|    \\/     M anipulation  |                                                 |
\*---------------------------------------------------------------------------*/
FoamFile
{
    version     2.0;
    format      ascii;
    arch        "LSB;label=32;scalar=64";
    class       surfaceScalarField;
    location    "0.2";
    object      meshPhi;
}
// * * * * * * * * * * * * * * * * * * * * * * * * * * * * * * * * * * * * * //

dimensions      [0 3 -1 0 0 0 0];

internalField   nonuniform List<scalar> 
480
(
0.00481681
0.000818281
0.00530242
0.00534895
0.00553854
0.00941433
0.00545356
0.0122233
0.00493995
0.0131483
0.00404335
0.0121684
0.00319896
0.010348
0.00910476
0.0029529
0.0140775
0.00147393
0.0153332
0.00928512
0.0159932
0.0163682
0.0158187
0.0214248
0.0144909
0.0234145
0.0122414
0.0224071
0.00998909
0.0198482
0.0176922
0.00925392
0.0227018
0.00197889
0.0243367
0.0120554
0.02533
0.0212792
0.0251867
0.0280564
0.0234987
0.031202
0.0206417
0.0308141
0.0175121
0.0281987
0.0254772
0.0163492
0.0307161
0.0023646
0.0324524
0.013901
0.0336815
0.0245276
0.0336765
0.0325638
0.0320501
0.0368243
0.0291526
0.0373683
0.0255844
0.0351152
0.0322906
0.0242745
0.0381749
0.00259465
0.0398921
0.0150324
0.0412799
0.0265278
0.0415163
0.0354359
0.0402272
0.0406362
0.0376631
0.0420975
0.0340704
0.0404513
0.0378605
0.0329433
0.0451248
0.00268704
0.0467736
0.0155298
0.0482825
0.0274144
0.0488302
0.0367984
0.0480558
0.0426873
0.046051
0.0449729
0.0428028
0.0440215
0.0419342
0.042167
0.0515857
0.00267497
0.0531605
0.0155184
0.0547935
0.0273956
0.0557116
0.0369265
0.0555611
0.0432349
0.0542881
0.0461492
0.0516579
0.0458867
0.0444005
0.0517584
0.0576063
0.00256642
0.0591317
0.0150258
0.060913
0.0265361
0.0622528
0.0359036
0.0628386
0.0423753
0.0624097
0.0457447
0.0606279
0.0461168
0.0453568
0.0617101
0.0632559
0.00242158
0.0647704
0.0141619
0.0667348
0.0249858
0.0685717
0.0339336
0.0699037
0.0403175
0.0703825
0.0438711
0.0697496
0.0448239
0.0447579
0.0719631
0.0686477
0.00223487
0.0701938
0.012886
0.0723793
0.0227511
0.0746987
0.0310163
0.0767577
0.0370539
0.0782658
0.0406658
0.0789669
0.0420401
0.0425396
0.0823904
0.0738109
0.00196092
0.0754377
0.0112794
0.077836
0.0199628
0.080634
0.0273174
0.0835199
0.0327695
0.08619
0.0362335
0.0883962
0.0379241
0.0388763
0.0932249
0.0787387
0.00164731
0.0804935
0.00950346
0.0831963
0.0167929
0.0865919
0.0229413
0.0904288
0.0276117
0.0944231
0.0307577
0.0983836
0.0325822
0.0338648
0.104674
0.0833904
0.00139037
0.085392
0.00756268
0.0885751
0.0132374
0.092756
0.0180105
0.0977329
0.0217265
0.103251
0.0244109
0.109018
0.0262316
0.0277308
0.116793
0.0878522
0.00138058
0.09021
0.00552894
0.0940163
0.00934115
0.0991792
0.0126154
0.105443
0.0152671
0.112544
0.0173642
0.120161
0.0190013
0.0204478
0.129462
0.0919128
0.00151378
0.0946713
0.00344912
0.0991943
0.00525891
0.105326
0.00689285
0.112854
0.0083283
0.121474
0.00957133
0.130947
0.0106498
0.0116211
0.141764
0.0941311
0.0974124
0.102578
0.109423
0.117768
0.127311
0.137799
0.149141
0.00320133
-0.006367
0.0038525
-0.00810866
0.00460856
-0.0102528
0.00493312
-0.0115086
0.00477794
-0.0111186
0.00455772
-0.00934284
0.00446667
-0.00661376
-0.0029891
0.0098341
-0.0129624
0.0117539
-0.015892
0.0136658
-0.019314
0.0145215
-0.0209757
0.0142165
-0.0201001
0.0136257
-0.0169431
0.0132921
-0.0119679
-0.00543811
0.0171194
-0.0197099
0.0199347
-0.0232536
0.0224214
-0.0270776
0.0235752
-0.0286358
0.0232652
-0.0271597
0.0224306
-0.02284
0.0218878
-0.0161321
-0.00744849
0.0250745
-0.0261793
0.0283048
-0.0298471
0.0309022
-0.0335261
0.0320989
-0.0345362
0.0318062
-0.0323939
0.0308479
-0.0272035
0.0301627
-0.019221
-0.00897111
0.0335584
-0.0320552
0.0368296
-0.0355142
0.0391902
-0.0386616
0.0402179
-0.0389996
0.0398834
-0.0361815
0.0388306
-0.0302363
0.0380223
-0.0213402
-0.0100808
0.0424171
-0.0369521
0.04542
-0.0399464
0.0473234
-0.0423934
0.0480047
-0.041952
0.0475077
-0.0384957
0.0463415
-0.0320368
0.0454082
-0.0226051
-0.0107887
0.0515253
-0.0406613
0.0540321
-0.0430853
0.0553132
-0.0447112
0.0555104
-0.04356
0.0547222
-0.0395674
0.0533846
-0.0327334
0.0523011
-0.0230767
-0.0111288
0.0608278
-0.0430535
0.0625957
-0.0447223
0.0631639
-0.045529
0.0627496
-0.0437325
0.0615502
-0.0393301
0.0599687
-0.0323876
0.0587074
-0.0228338
-0.0111147
0.0701691
-0.0439075
0.0710177
-0.0448345
0.0707829
-0.0448402
0.0697129
-0.0425347
0.0680325
-0.0378984
0.066134
-0.0310258
0.0646489
-0.0218431
-0.0107161
0.0795826
-0.0432627
0.0793166
-0.0435082
0.0781848
-0.0427711
0.0763883
-0.0400007
0.0741608
-0.035245
0.0719124
-0.0286622
0.0701835
-0.0201477
-0.00997608
0.0892254
-0.0411581
0.0875869
-0.040775
0.0853459
-0.0393148
0.0826854
-0.0361648
0.0798829
-0.0314908
0.0772939
-0.0254105
0.0753435
-0.017824
-0.00889211
0.099267
-0.0373158
0.095957
-0.0363953
0.0923789
-0.0343539
0.0887317
-0.0310615
0.0852913
-0.0266717
0.0823503
-0.0213569
0.0802175
-0.0149377
-0.00742923
0.109826
-0.0312004
0.10463
-0.0299491
0.099551
-0.0277072
0.0947194
-0.0246144
0.0905241
-0.0208445
0.0871462
-0.0165047
0.0847891
-0.0113756
-0.00554383
0.120778
-0.0225108
0.113591
-0.021207
0.106839
-0.0191984
0.100712
-0.0168114
0.0955622
-0.0140064
0.0915819
-0.0107378
0.0889475
-0.00707286
-0.00314273
0.131386
-0.0113329
0.122063
-0.0103002
0.113565
-0.00899671
0.106116
-0.00762316
0.0999451
-0.00606595
0.0953419
-0.00430017
0.0924561
-0.00244716
-0.00054692
0.137102
0.126032
0.116229
0.107902
0.101247
0.0964701
0.0936839
)
;

boundaryField
{
    walls
    {
        type            calculated;
        value           uniform 0;
    }
    cylinder
    {
        type            calculated;
        value           nonuniform List<scalar> 
16
(
2.08407e-11
-2.55895e-11
-8.48939e-12
1.54423e-11
-4.34913e-11
3.15057e-11
4.87881e-11
-2.46991e-11
2.46986e-11
-4.87869e-11
-3.15045e-11
4.34906e-11
-1.54429e-11
8.48888e-12
2.55902e-11
-2.08398e-11
)
;
    }
    outlet
    {
        type            calculated;
        value           uniform 0;
    }
    inlet
    {
        type            calculated;
        value           nonuniform List<scalar> 0();
    }
    frontAndBack
    {
        type            empty;
    }
    procBoundary1to0
    {
        type            processor;
        value           nonuniform List<scalar> 
16
(
-0.00472315
-0.0138032
-0.0222666
-0.0301732
-0.0375712
-0.0444986
-0.0509769
-0.057046
-0.0627532
-0.0681757
-0.0733151
-0.0781943
-0.082823
-0.0871915
-0.0910394
-0.0928351
)
;
    }
    procBoundary1to3
    {
        type            processor;
        value           nonuniform List<scalar> 
16
(
0.0048213
0.0140973
0.0227608
0.0308833
0.0385078
0.0456379
0.0522685
0.058429
0.0641611
0.0695373
0.07457
0.0793217
0.0837871
0.0879089
0.0914289
0.0929383
)
;
    }
}


// ************************************************************************* //
