/*--------------------------------*- C++ -*----------------------------------*\
| =========                 |                                                 |
| \\      /  F ield         | OpenFOAM: The Open Source CFD Toolbox           |
|  \\    /   O peration     | Version:  2412                                  |
|   \\  /    A nd           | Website:  www.openfoam.com                      |
|    \\/     M anipulation  |                                                 |
\*---------------------------------------------------------------------------*/
FoamFile
{
    version     2.0;
    format      ascii;
    arch        "LSB;label=32;scalar=64";
    class       pointVectorField;
    location    "0.2";
    object      pointDisplacement;
}
// * * * * * * * * * * * * * * * * * * * * * * * * * * * * * * * * * * * * * //

dimensions      [0 1 0 0 0 0 0];

internalField   nonuniform List<vector> 
578
(
(0 0 0)
(0 0 0)
(0 0 0)
(0 0 0)
(0 0 0)
(0 0 0)
(0 0 0)
(0 0 0)
(0 0 0)
(0.0137952 -0.000280171 0)
(0.0136002 0.00175712 0)
(0.0127579 0.00354199 0)
(0.0113206 0.00481527 0)
(0.00951519 0.00543469 0)
(0.00755379 0.00536953 0)
(0.00558501 0.00467709 0)
(0.00367253 0.00345662 0)
(0.00267399 0.00266468 0)
(0.0270753 -0.000429807 0)
(0.0267033 0.0034192 0)
(0.025156 0.00682014 0)
(0.0225554 0.00932731 0)
(0.0192767 0.0106872 0)
(0.0156801 0.0108272 0)
(0.0120428 0.00983134 0)
(0.00848224 0.00783363 0)
(0.00659794 0.00654428 0)
(0.0396821 -0.000463527 0)
(0.0391404 0.00498221 0)
(0.0370078 0.0098317 0)
(0.0334908 0.0135153 0)
(0.0290481 0.0156945 0)
(0.0241463 0.0162635 0)
(0.0191487 0.0152992 0)
(0.0142267 0.0129393 0)
(0.0115483 0.0114264 0)
(0.0516731 -0.000394384 0)
(0.0509691 0.00647255 0)
(0.0483626 0.012633 0)
(0.0441319 0.0174399 0)
(0.0387887 0.0204971 0)
(0.0328652 0.0216691 0)
(0.0267867 0.0210142 0)
(0.0207659 0.0186544 0)
(0.0173842 0.0171852 0)
(0.0631123 -0.000228856 0)
(0.0622581 0.00791635 0)
(0.0592751 0.0152755 0)
(0.0544998 0.02116 0)
(0.0484734 0.0251358 0)
(0.0417661 0.027044 0)
(0.0348437 0.0269198 0)
(0.0279622 0.0248734 0)
(0.0239498 0.0236806 0)
(0.0740417 3.38176e-05 0)
(0.073048 0.00933639 0)
(0.0697758 0.0178005 0)
(0.0645981 0.0247199 0)
(0.0580715 0.0296421 0)
(0.0507811 0.0323891 0)
(0.0432196 0.0329751 0)
(0.0356795 0.0314998 0)
(0.0311029 0.0307917 0)
(0.0845106 0.000400205 0)
(0.0833886 0.0107577 0)
(0.0799015 0.0202464 0)
(0.0744426 0.0281637 0)
(0.0675657 0.0340499 0)
(0.0598575 0.0377144 0)
(0.0518246 0.0391518 0)
(0.0437935 0.0384569 0)
(0.0386968 0.0384014 0)
(0.0945469 0.000882485 0)
(0.0933081 0.0122039 0)
(0.0896717 0.0226457 0)
(0.0840333 0.0315256 0)
(0.0769333 0.038388 0)
(0.068947 0.0430333 0)
(0.0605806 0.0454366 0)
(0.052191 0.0456897 0)
(0.0466133 0.0464344 0)
(0.104181 0.00150088 0)
(0.102838 0.0137028 0)
(0.0991092 0.0250324 0)
(0.0933785 0.0348416 0)
(0.0861625 0.0426882 0)
(0.078006 0.048364 0)
(0.0694249 0.0518321 0)
(0.0607904 0.0531849 0)
(0.0547445 0.0548444 0)
(0.113424 0.00228516 0)
(0.111988 0.0152848 0)
(0.108218 0.027437 0)
(0.10247 0.0381415 0)
(0.0952243 0.046974 0)
(0.0870101 0.0537293 0)
(0.0783141 0.0583608 0)
(0.0695059 0.0609349 0)
(0.0629931 0.063619 0)
(0.122273 0.00327645 0)
(0.120757 0.0169873 0)
(0.116988 0.0298936 0)
(0.111291 0.0414526 0)
(0.104114 0.0512741 0)
(0.0959296 0.0591555 0)
(0.0871892 0.0650328 0)
(0.0782549 0.0689566 0)
(0.0712354 0.0727637 0)
(0.130694 0.00453324 0)
(0.129101 0.0188545 0)
(0.125374 0.0324306 0)
(0.119807 0.0447944 0)
(0.112779 0.0555984 0)
(0.104696 0.0646515 0)
(0.095961 0.0718631 0)
(0.0868985 0.0772537 0)
(0.0793001 0.0822891 0)
(0.138594 0.00613459 0)
(0.136917 0.020922 0)
(0.133276 0.0350575 0)
(0.127898 0.0481609 0)
(0.121083 0.0599374 0)
(0.113156 0.0701974 0)
(0.104439 0.0788326 0)
(0.0952168 0.0858192 0)
(0.0869271 0.0921972 0)
(0.14572 0.00816115 0)
(0.143953 0.0232188 0)
(0.140419 0.0377626 0)
(0.135269 0.051504 0)
(0.128705 0.0642075 0)
(0.120953 0.0756896 0)
(0.112248 0.0858266 0)
(0.102816 0.0945464 0)
(0.0936719 0.102403 0)
(0.151396 0.0106063 0)
(0.149534 0.0256808 0)
(0.146109 0.0404079 0)
(0.141195 0.0545965 0)
(0.134885 0.0680763 0)
(0.127302 0.0806921 0)
(0.118571 0.092314 0)
(0.108832 0.102836 0)
(0.0985214 0.112349 0)
(0.154117 0.0119474 0)
(0.152204 0.026996 0)
(0.148825 0.0417847 0)
(0.144013 0.0561709 0)
(0.137814 0.0700161 0)
(0.130287 0.0831871 0)
(0.121506 0.0955569 0)
(0.111555 0.107006 0)
(0.100529 0.117426 0)
(0 0 0)
(0 0 0)
(0 0 0)
(0 0 0)
(0 0 0)
(0 0 0)
(0 0 0)
(0 0 0)
(0 0 0)
(0.0137952 -0.000280171 0)
(0.0136002 0.00175712 0)
(0.0127579 0.00354199 0)
(0.0113206 0.00481527 0)
(0.00951519 0.00543469 0)
(0.00755379 0.00536953 0)
(0.00558501 0.00467709 0)
(0.00367253 0.00345662 0)
(0.00267399 0.00266468 0)
(0.0270753 -0.000429807 0)
(0.0267033 0.0034192 0)
(0.025156 0.00682014 0)
(0.0225554 0.00932731 0)
(0.0192767 0.0106872 0)
(0.0156801 0.0108272 0)
(0.0120428 0.00983134 0)
(0.00848224 0.00783363 0)
(0.00659794 0.00654428 0)
(0.0396821 -0.000463527 0)
(0.0391404 0.00498221 0)
(0.0370078 0.0098317 0)
(0.0334908 0.0135153 0)
(0.0290481 0.0156945 0)
(0.0241463 0.0162635 0)
(0.0191487 0.0152992 0)
(0.0142267 0.0129393 0)
(0.0115483 0.0114264 0)
(0.0516731 -0.000394384 0)
(0.0509691 0.00647255 0)
(0.0483626 0.012633 0)
(0.0441319 0.0174399 0)
(0.0387887 0.0204971 0)
(0.0328652 0.0216691 0)
(0.0267867 0.0210142 0)
(0.0207659 0.0186544 0)
(0.0173842 0.0171852 0)
(0.0631123 -0.000228856 0)
(0.0622581 0.00791635 0)
(0.0592751 0.0152755 0)
(0.0544998 0.02116 0)
(0.0484734 0.0251358 0)
(0.0417661 0.027044 0)
(0.0348437 0.0269198 0)
(0.0279622 0.0248734 0)
(0.0239498 0.0236806 0)
(0.0740417 3.38176e-05 0)
(0.073048 0.00933639 0)
(0.0697758 0.0178005 0)
(0.0645981 0.0247199 0)
(0.0580715 0.0296421 0)
(0.0507811 0.0323891 0)
(0.0432196 0.0329751 0)
(0.0356795 0.0314998 0)
(0.0311029 0.0307917 0)
(0.0845106 0.000400205 0)
(0.0833886 0.0107577 0)
(0.0799015 0.0202464 0)
(0.0744426 0.0281637 0)
(0.0675657 0.0340499 0)
(0.0598575 0.0377144 0)
(0.0518246 0.0391518 0)
(0.0437935 0.0384569 0)
(0.0386968 0.0384014 0)
(0.0945469 0.000882485 0)
(0.0933081 0.0122039 0)
(0.0896717 0.0226457 0)
(0.0840333 0.0315256 0)
(0.0769333 0.038388 0)
(0.068947 0.0430333 0)
(0.0605806 0.0454366 0)
(0.052191 0.0456897 0)
(0.0466133 0.0464344 0)
(0.104181 0.00150088 0)
(0.102838 0.0137028 0)
(0.0991092 0.0250324 0)
(0.0933785 0.0348416 0)
(0.0861625 0.0426882 0)
(0.078006 0.048364 0)
(0.0694249 0.0518321 0)
(0.0607904 0.0531849 0)
(0.0547445 0.0548444 0)
(0.113424 0.00228516 0)
(0.111988 0.0152848 0)
(0.108218 0.027437 0)
(0.10247 0.0381415 0)
(0.0952243 0.046974 0)
(0.0870101 0.0537293 0)
(0.0783141 0.0583608 0)
(0.0695059 0.0609349 0)
(0.0629931 0.063619 0)
(0.122273 0.00327645 0)
(0.120757 0.0169873 0)
(0.116988 0.0298936 0)
(0.111291 0.0414526 0)
(0.104114 0.0512741 0)
(0.0959296 0.0591555 0)
(0.0871892 0.0650328 0)
(0.0782549 0.0689566 0)
(0.0712354 0.0727637 0)
(0.130694 0.00453324 0)
(0.129101 0.0188545 0)
(0.125374 0.0324306 0)
(0.119807 0.0447944 0)
(0.112779 0.0555984 0)
(0.104696 0.0646515 0)
(0.095961 0.0718631 0)
(0.0868985 0.0772537 0)
(0.0793001 0.0822891 0)
(0.138594 0.00613459 0)
(0.136917 0.020922 0)
(0.133276 0.0350575 0)
(0.127898 0.0481609 0)
(0.121083 0.0599374 0)
(0.113156 0.0701974 0)
(0.104439 0.0788326 0)
(0.0952168 0.0858192 0)
(0.0869271 0.0921972 0)
(0.14572 0.00816115 0)
(0.143953 0.0232188 0)
(0.140419 0.0377626 0)
(0.135269 0.051504 0)
(0.128705 0.0642075 0)
(0.120953 0.0756896 0)
(0.112248 0.0858266 0)
(0.102816 0.0945464 0)
(0.0936719 0.102403 0)
(0.151396 0.0106063 0)
(0.149534 0.0256808 0)
(0.146109 0.0404079 0)
(0.141195 0.0545965 0)
(0.134885 0.0680763 0)
(0.127302 0.0806921 0)
(0.118571 0.092314 0)
(0.108832 0.102836 0)
(0.0985214 0.112349 0)
(0.154117 0.0119474 0)
(0.152204 0.026996 0)
(0.148825 0.0417847 0)
(0.144013 0.0561709 0)
(0.137814 0.0700161 0)
(0.130287 0.0831871 0)
(0.121506 0.0955569 0)
(0.111555 0.107006 0)
(0.100529 0.117426 0)
(0 0 0)
(0 0 0)
(0 0 0)
(0 0 0)
(0 0 0)
(0 0 0)
(0 0 0)
(0 0 0)
(0.00344718 0.00357828 0)
(0.00463415 0.00531713 0)
(0.00532252 0.00710378 0)
(0.00544021 0.00887895 0)
(0.00494456 0.0105472 0)
(0.00385551 0.012011 0)
(0.00224275 0.0131074 0)
(0.000275233 0.0136949 0)
(0.00783946 0.00826494 0)
(0.00979294 0.0115383 0)
(0.0107851 0.0148678 0)
(0.010726 0.0181661 0)
(0.00956199 0.02126 0)
(0.00733444 0.0239313 0)
(0.00418487 0.0258881 0)
(0.000433705 0.0268857 0)
(0.0129875 0.0138867 0)
(0.0152899 0.0184466 0)
(0.0162489 0.0230745 0)
(0.0157707 0.0276431 0)
(0.0138054 0.0319038 0)
(0.0104236 0.0355363 0)
(0.00583734 0.0381546 0)
(0.000488604 0.0394175 0)
(0.0187566 0.0203141 0)
(0.0210436 0.0259441 0)
(0.0216768 0.0316412 0)
(0.0205772 0.0372488 0)
(0.0177102 0.0424525 0)
(0.013173 0.0468348 0)
(0.00723846 0.0499326 0)
(0.000447929 0.0513489 0)
(0.0250255 0.0274301 0)
(0.0269713 0.0339276 0)
(0.027037 0.0405012 0)
(0.0251542 0.046946 0)
(0.0213039 0.0528795 0)
(0.0156137 0.0578186 0)
(0.00841351 0.0612518 0)
(0.000314769 0.0627445 0)
(0.031672 0.0351165 0)
(0.0330057 0.0423189 0)
(0.0322991 0.0495941 0)
(0.0294971 0.056689 0)
(0.0246033 0.0631709 0)
(0.017773 0.068503 0)
(0.00938059 0.072139 0)
(8.63475e-05 0.0736428 0)
(0.03859 0.0432807 0)
(0.0390786 0.0510445 0)
(0.0374306 0.058874 0)
(0.0336024 0.0664581 0)
(0.0276168 0.0733157 0)
(0.0196603 0.078887 0)
(0.0101446 0.082623 0)
(-0.000245412 0.0840934 0)
(0.0456784 0.0518479 0)
(0.045129 0.0600595 0)
(0.0423956 0.0683066 0)
(0.037448 0.0762247 0)
(0.0303371 0.0833108 0)
(0.0212771 0.0889934 0)
(0.0107021 0.0927305 0)
(-0.000694719 0.0941255 0)
(0.0528514 0.0607834 0)
(0.0510894 0.0693381 0)
(0.047143 0.0778724 0)
(0.0410026 0.0859892 0)
(0.0327431 0.0931594 0)
(0.022603 0.0988257 0)
(0.0110336 0.102483 0)
(-0.00128386 0.103772 0)
(0.0600086 0.0700763 0)
(0.0568772 0.0788804 0)
(0.0516035 0.0875809 0)
(0.0442057 0.095746 0)
(0.0347851 0.102864 0)
(0.0235995 0.108404 0)
(0.0111072 0.111898 0)
(-0.0020432 0.113042 0)
(0.067025 0.0797368 0)
(0.0623708 0.0887056 0)
(0.0556655 0.0974429 0)
(0.0469618 0.105516 0)
(0.0363783 0.112435 0)
(0.0242 0.117719 0)
(0.0108696 0.120971 0)
(-0.00302092 0.121935 0)
(0.0737131 0.0897839 0)
(0.0673874 0.0988344 0)
(0.059162 0.107476 0)
(0.0491069 0.115293 0)
(0.0373873 0.121857 0)
(0.024294 0.126762 0)
(0.0102272 0.129683 0)
(-0.00428548 0.130421 0)
(0.0797816 0.100224 0)
(0.0716435 0.109251 0)
(0.0618132 0.117637 0)
(0.0504043 0.125023 0)
(0.0376163 0.131063 0)
(0.0237125 0.135451 0)
(0.00904905 0.137946 0)
(-0.00593239 0.138402 0)
(0.0847535 0.110957 0)
(0.0746714 0.119811 0)
(0.0632168 0.127738 0)
(0.0505338 0.13448 0)
(0.0367961 0.139812 0)
(0.0222517 0.143539 0)
(0.00719754 0.145504 0)
(-0.00804095 0.145623 0)
(0.0876015 0.121399 0)
(0.075651 0.129784 0)
(0.0627515 0.136978 0)
(0.0490366 0.142854 0)
(0.0346503 0.14731 0)
(0.0197864 0.150253 0)
(0.0046452 0.151618 0)
(-0.010569 0.151371 0)
(0.0885355 0.126714 0)
(0.075689 0.134781 0)
(0.0621137 0.141551 0)
(0.0479401 0.146958 0)
(0.0333049 0.150949 0)
(0.0183489 0.153487 0)
(0.00321623 0.154546 0)
(-0.0119474 0.154117 0)
(0 0 0)
(0 0 0)
(0 0 0)
(0 0 0)
(0 0 0)
(0 0 0)
(0 0 0)
(0 0 0)
(0.00344718 0.00357828 0)
(0.00463415 0.00531713 0)
(0.00532252 0.00710378 0)
(0.00544021 0.00887895 0)
(0.00494456 0.0105472 0)
(0.00385551 0.012011 0)
(0.00224275 0.0131074 0)
(0.000275233 0.0136949 0)
(0.00783946 0.00826494 0)
(0.00979294 0.0115383 0)
(0.0107851 0.0148678 0)
(0.010726 0.0181661 0)
(0.00956199 0.02126 0)
(0.00733444 0.0239313 0)
(0.00418487 0.0258881 0)
(0.000433705 0.0268857 0)
(0.0129875 0.0138867 0)
(0.0152899 0.0184466 0)
(0.0162489 0.0230745 0)
(0.0157707 0.0276431 0)
(0.0138054 0.0319038 0)
(0.0104236 0.0355363 0)
(0.00583734 0.0381546 0)
(0.000488604 0.0394175 0)
(0.0187566 0.0203141 0)
(0.0210436 0.0259441 0)
(0.0216768 0.0316412 0)
(0.0205772 0.0372488 0)
(0.0177102 0.0424525 0)
(0.013173 0.0468348 0)
(0.00723846 0.0499326 0)
(0.000447929 0.0513489 0)
(0.0250255 0.0274301 0)
(0.0269713 0.0339276 0)
(0.027037 0.0405012 0)
(0.0251542 0.046946 0)
(0.0213039 0.0528795 0)
(0.0156137 0.0578186 0)
(0.00841351 0.0612518 0)
(0.000314769 0.0627445 0)
(0.031672 0.0351165 0)
(0.0330057 0.0423189 0)
(0.0322991 0.0495941 0)
(0.0294971 0.056689 0)
(0.0246033 0.0631709 0)
(0.017773 0.068503 0)
(0.00938059 0.072139 0)
(8.63475e-05 0.0736428 0)
(0.03859 0.0432807 0)
(0.0390786 0.0510445 0)
(0.0374306 0.058874 0)
(0.0336024 0.0664581 0)
(0.0276168 0.0733157 0)
(0.0196603 0.078887 0)
(0.0101446 0.082623 0)
(-0.000245412 0.0840934 0)
(0.0456784 0.0518479 0)
(0.045129 0.0600595 0)
(0.0423956 0.0683066 0)
(0.037448 0.0762247 0)
(0.0303371 0.0833108 0)
(0.0212771 0.0889934 0)
(0.0107021 0.0927305 0)
(-0.000694719 0.0941255 0)
(0.0528514 0.0607834 0)
(0.0510894 0.0693381 0)
(0.047143 0.0778724 0)
(0.0410026 0.0859892 0)
(0.0327431 0.0931594 0)
(0.022603 0.0988257 0)
(0.0110336 0.102483 0)
(-0.00128386 0.103772 0)
(0.0600086 0.0700763 0)
(0.0568772 0.0788804 0)
(0.0516035 0.0875809 0)
(0.0442057 0.095746 0)
(0.0347851 0.102864 0)
(0.0235995 0.108404 0)
(0.0111072 0.111898 0)
(-0.0020432 0.113042 0)
(0.067025 0.0797368 0)
(0.0623708 0.0887056 0)
(0.0556655 0.0974429 0)
(0.0469618 0.105516 0)
(0.0363783 0.112435 0)
(0.0242 0.117719 0)
(0.0108696 0.120971 0)
(-0.00302092 0.121935 0)
(0.0737131 0.0897839 0)
(0.0673874 0.0988344 0)
(0.059162 0.107476 0)
(0.0491069 0.115293 0)
(0.0373873 0.121857 0)
(0.024294 0.126762 0)
(0.0102272 0.129683 0)
(-0.00428548 0.130421 0)
(0.0797816 0.100224 0)
(0.0716435 0.109251 0)
(0.0618132 0.117637 0)
(0.0504043 0.125023 0)
(0.0376163 0.131063 0)
(0.0237125 0.135451 0)
(0.00904905 0.137946 0)
(-0.00593239 0.138402 0)
(0.0847535 0.110957 0)
(0.0746714 0.119811 0)
(0.0632168 0.127738 0)
(0.0505338 0.13448 0)
(0.0367961 0.139812 0)
(0.0222517 0.143539 0)
(0.00719754 0.145504 0)
(-0.00804095 0.145623 0)
(0.0876015 0.121399 0)
(0.075651 0.129784 0)
(0.0627515 0.136978 0)
(0.0490366 0.142854 0)
(0.0346503 0.14731 0)
(0.0197864 0.150253 0)
(0.0046452 0.151618 0)
(-0.010569 0.151371 0)
(0.0885355 0.126714 0)
(0.075689 0.134781 0)
(0.0621137 0.141551 0)
(0.0479401 0.146958 0)
(0.0333049 0.150949 0)
(0.0183489 0.153487 0)
(0.00321623 0.154546 0)
(-0.0119474 0.154117 0)
)
;

boundaryField
{
    walls
    {
        type            fixedValue;
        value           uniform (0 0 0);
    }
    cylinder
    {
        type            solidBodyMotionDisplacement;
        value           nonuniform List<vector> 
34
(
(0.154117 0.0119474 0)
(0.154117 0.0119474 0)
(0.152204 0.026996 0)
(0.152204 0.026996 0)
(0.148825 0.0417847 0)
(0.148825 0.0417847 0)
(0.144013 0.0561709 0)
(0.144013 0.0561709 0)
(0.137814 0.0700161 0)
(0.137814 0.0700161 0)
(0.130287 0.0831871 0)
(0.130287 0.0831871 0)
(0.121506 0.0955569 0)
(0.121506 0.0955569 0)
(0.111555 0.107006 0)
(0.111555 0.107006 0)
(0.100529 0.117426 0)
(0.100529 0.117426 0)
(0.0885355 0.126714 0)
(0.0885355 0.126714 0)
(0.075689 0.134781 0)
(0.075689 0.134781 0)
(0.0621137 0.141551 0)
(0.0621137 0.141551 0)
(0.0479401 0.146958 0)
(0.0479401 0.146958 0)
(0.0333049 0.150949 0)
(0.0333049 0.150949 0)
(0.0183489 0.153487 0)
(0.0183489 0.153487 0)
(0.00321623 0.154546 0)
(0.00321623 0.154546 0)
(-0.0119474 0.154117 0)
(-0.0119474 0.154117 0)
)
;
        solidBodyMotionFunction oscillatingRotatingMotion;
        oscillatingRotatingMotionCoeffs
        {
            origin          ( 0 0 0 );
            axis            ( 0 0 1 );
            omega           1.5;
            amplitude       ( 0 0 30 );
        }
    }
    outlet
    {
        type            fixedValue;
        value           uniform (0 0 0);
    }
    inlet
    {
        type            fixedValue;
        value           nonuniform List<vector> 0();
    }
    frontAndBack
    {
        type            empty;
    }
    procBoundary1to0
    {
        type            processor;
    }
    procBoundary1to3
    {
        type            processor;
    }
}


// ************************************************************************* //
