/*--------------------------------*- C++ -*----------------------------------*\
| =========                 |                                                 |
| \\      /  F ield         | OpenFOAM: The Open Source CFD Toolbox           |
|  \\    /   O peration     | Version:  2412                                  |
|   \\  /    A nd           | Website:  www.openfoam.com                      |
|    \\/     M anipulation  |                                                 |
\*---------------------------------------------------------------------------*/
FoamFile
{
    version     2.0;
    format      ascii;
    arch        "LSB;label=32;scalar=64";
    class       volScalarField;
    location    "11";
    object      p;
}
// * * * * * * * * * * * * * * * * * * * * * * * * * * * * * * * * * * * * * //

dimensions      [0 2 -2 0 0 0 0];

internalField   nonuniform List<scalar> 
808
(
0.0990203
-0.00224838
0.0248601
0.100032
-0.221414
-0.000727873
-0.0122632
0.0133371
-0.129249
-0.043531
0.02656
-0.142494
0.0113692
-0.00928366
-0.330783
0.0117237
-0.344523
0.0103112
0.0207625
-0.0141749
0.0283919
0.361696
0.049571
-0.021916
0.439158
-0.205162
-0.0685172
0.00686415
0.0106067
0.00204433
0.00996956
-0.00196984
0.015893
0.00778664
-0.102801
0.612607
-0.00450561
0.0105892
0.00632782
0.0144506
-0.0721698
-0.0714366
0.012651
0.00699972
-0.223433
0.0665195
-0.000799445
0.00190097
-0.00535094
-0.168383
-0.00600701
-0.00102429
0.0214549
0.00489033
-0.111297
-0.0074374
0.0055936
0.0271343
-0.0376527
-0.013661
-0.311858
-0.00797584
0.0236521
-0.196826
0.0165003
0.0244632
-0.261901
0.0159013
0.0157452
-0.27043
0.00644309
-0.299678
0.00425378
-4.45344e-06
0.176676
-0.000271703
-0.0300703
-0.0928216
-0.00955078
0.293904
-0.151247
-0.00700244
0.0106095
0.259663
0.00269644
-0.0515426
-0.34175
-0.131083
0.00747746
-0.233268
0.0211247
-0.114355
0.234551
0.135818
0.0150531
-0.266081
0.0154878
-0.153238
-0.124055
-0.238013
-0.00550667
-0.0213144
0.0205413
-0.0453815
-0.133688
0.0353916
-0.243783
0.0151902
-0.00856296
0.0212922
-0.10095
0.314445
0.00100325
0.0217747
0.0134416
0.437545
-0.0080268
-0.25523
-0.00306832
0.0393674
-0.294382
0.0157042
-0.00236068
0.0391457
0.0904426
-0.0750979
0.0897223
0.0262934
0.0141508
0.0429087
-0.272765
0.00905237
-0.07034
0.102981
0.00143532
-0.00997915
0.0416713
0.00248498
0.00570662
-0.013466
-0.318319
0.029974
0.028601
0.00188507
-0.0558091
0.0582672
0.0767959
0.13972
-0.0811784
0.00933232
-0.00262249
0.32525
0.0129365
0.519456
-0.29885
-0.127383
-0.00269205
-0.246742
0.0310191
-0.148359
-0.292664
-0.311392
-0.273883
0.00211209
0.0386504
0.00373741
0.00527985
-0.277747
-0.00424006
0.0206023
0.020801
0.136693
0.0600315
0.113404
-0.00251446
0.0523132
0.0466228
-0.159307
-0.00362093
-0.324378
0.0161662
-0.167874
-0.00534387
0.249461
-0.339979
0.0940494
-0.0013077
-0.175484
0.016444
-0.122946
-0.301288
-0.0941477
-0.000100796
0.063302
-0.00376533
-0.307339
-8.55351e-05
0.0162227
0.00618544
0.0562297
0.0487557
0.0128551
0.0153788
-0.296181
0.35887
-0.297828
-0.292632
0.0062458
0.0247836
0.00117172
0.00735568
-0.371495
-0.283413
-0.00424457
0.00662555
-0.00321877
-0.305342
-0.0601353
0.00645154
0.0245945
0.00927506
-0.110208
0.0115481
0.0108749
0.00363329
0.0108099
0.102653
-0.304536
0.0371758
0.00927315
0.0954256
0.0103798
0.0094181
0.0090346
-0.13195
0.0193445
0.00732381
0.000705124
0.00424413
0.0126266
0.00277697
0.000633476
0.00487803
0.00635117
0.00144202
0.00108099
0.0016524
0.00167681
0.00219452
0.0413707
-0.298513
0.00159973
0.00177268
-0.155651
0.00442441
-0.00897442
0.0192012
0.00119102
0.00984117
0.104338
0.0288802
0.0068356
0.0111667
0.0565192
0.0105478
0.0131442
0.017094
0.0262409
0.0192202
0.0377746
0.0272347
-0.368378
0.25757
0.0120316
-0.067471
0.0174316
0.0117178
0.0145118
-0.243218
0.266932
0.0151956
0.0240728
0.0212529
0.0669165
-0.180922
0.015543
0.0538411
0.0811639
0.0274088
0.044589
-0.00269678
0.0228042
0.0207661
0.0246253
0.0361093
0.0198889
0.0289768
0.0345033
0.0311172
0.0294366
0.0159811
0.0138921
0.0209116
0.0129173
-0.477543
-0.126407
0.0309678
0.0636228
-0.182546
-0.316334
0.0245434
0.0122841
-0.297569
0.110895
0.141478
0.000428833
-0.002833
0.0401975
0.00500166
-0.210588
0.0142745
0.000823418
0.00608592
0.0200413
0.0193973
0.00803609
0.047825
-0.0206989
0.0227618
-0.288198
-0.0135459
0.0116168
0.00466802
0.0556832
-0.0109101
0.212025
0.0251126
-0.172622
0.533741
0.0409756
0.002484
0.00475434
-0.0879505
-0.0747599
0.0322443
0.0130452
-0.0149192
0.0177711
-0.0733471
-0.277778
0.0473322
0.083324
-0.077094
-0.284263
-0.295749
-0.304476
-0.294311
0.0520303
0.00535251
0.00436634
-0.0169409
-0.0501346
0.00706093
0.00990616
0.00229757
-0.472071
0.0446233
0.0166464
0.0174217
-0.298778
0.0493282
0.00814273
0.0956952
-0.308552
0.032291
-0.0525071
0.0375024
0.0409912
-0.288531
0.00750848
-0.32361
-0.00960774
0.0550863
0.0150321
-0.00778423
0.00716299
-0.0819926
-0.313841
-0.0134061
-0.00362133
0.0245265
0.0109145
-0.0225275
0.0111434
-0.0232884
-0.0226945
-0.0854383
0.0231526
-0.00316877
-0.00560303
-0.315743
-0.141784
0.0390322
-0.0061988
-0.149645
-0.0434602
0.413319
-0.29064
0.00590328
-0.10429
-0.000261391
0.0269945
0.0010405
0.0358796
-0.0248929
-0.00957772
-0.0854031
-0.0179304
-0.00137665
-0.00411061
-0.00610576
-0.0022178
0.0185749
0.0998801
0.0609907
0.0145509
0.00739315
-0.00359498
-0.0862347
0.00398358
-0.354144
0.0202677
0.0337243
0.013814
-0.231281
-0.320893
-0.0353329
-0.0834266
-0.0655023
0.00579919
-0.211177
-0.226812
0.208986
-0.288628
-0.424102
-0.270285
-0.0401208
-0.0974696
-0.300781
0.337656
-0.0487198
-0.299845
-0.0136337
0.031551
0.56426
0.00730018
-0.00285533
0.0238312
-0.0321421
-0.032276
-0.339185
-0.311442
0.0348739
0.0449097
0.0672693
-0.247375
-0.278634
-0.258252
-0.0038297
0.0217779
0.0716301
-0.0385701
-0.036051
0.0564671
0.0181116
0.00873343
-0.20192
-0.31757
0.00217501
-0.108577
0.00351138
-0.0155459
0.0633649
-0.0768156
0.0188615
-0.431021
0.439574
-0.274336
-0.293413
-0.0518029
0.0127334
-0.29683
-0.284142
0.104511
-0.308274
-0.220214
0.850439
-0.00741484
-0.328071
-0.0127264
-0.118427
-0.0167202
-0.428328
-0.311331
-0.28226
0.00772389
-0.264864
-0.331461
-0.0350845
-0.044103
0.0819398
-0.280576
0.00719282
-0.46768
-0.338208
-0.398046
-0.17274
0.0104325
-0.0100025
0.0843898
0.111206
-0.0573595
-0.284015
0.293498
0.0767363
0.0122705
-0.405794
-0.464274
-0.300561
-0.00138776
-0.320772
0.0694791
0.041609
0.0151293
-0.248438
-0.215998
0.00989959
-0.290936
-0.317323
0.00544221
-0.0250744
-0.227847
-0.0322809
0.0120312
-0.352547
-0.308382
-0.113252
0.0798738
0.0111176
-0.304461
-0.30547
-0.292457
-0.264075
0.0159388
0.0775229
0.00482077
-0.29919
-0.31331
0.0807911
0.00814765
-0.214752
0.0176096
0.0232141
-0.345369
0.0167082
-0.24943
0.0274872
-0.356053
0.0259273
0.00226313
-0.376795
-0.467111
0.00275784
-0.443259
-0.427841
0.0194247
-0.0890729
-0.290817
0.00414153
-0.28683
0.0184792
0.059076
0.047696
-0.361401
0.0526462
0.0448287
-0.464996
0.0140731
-0.312029
-0.00533775
-0.294553
-0.520944
0.0903453
0.255522
0.430228
0.00728717
0.00161115
0.00144535
-0.312497
0.631696
-0.00297574
-0.239549
0.0154716
-0.0595918
0.0687773
0.470272
-0.381567
-0.066315
-0.0654478
0.0232943
-0.00437259
-0.463421
-0.281202
-0.314657
-0.336802
-0.259361
-0.0203556
-0.336889
0.0463384
-0.285673
-0.326815
0.495452
0.574219
-0.343828
0.109364
-0.292193
-0.0421509
-0.0880463
0.390079
-0.0701474
-0.296489
-0.0309798
-0.520475
-0.0482959
-0.213195
-0.0374741
-0.325447
-0.297241
0.00213336
0.00306726
-0.297483
0.442538
0.662011
-0.29317
-0.31553
-0.299804
-0.0809707
-0.318497
-0.297024
-0.212928
-0.296468
0.739383
-0.352132
0.734925
-0.385616
0.319856
-0.286949
-0.0195597
0.158162
-0.511544
0.223249
-0.304185
-0.326214
-0.353097
0.857615
-0.289464
0.199096
0.140064
0.634265
0.112664
-0.375918
-0.306776
-0.198116
0.00975161
0.0697655
0.51617
0.0108775
-0.0457285
-0.299695
0.101481
-0.118525
-0.301181
0.0134734
-0.366118
-0.147548
-0.172014
-0.339825
-0.015662
0.0898742
-0.0210684
0.0556368
0.0984495
-0.345973
-0.370972
-0.0490319
-0.0117578
-0.477588
-0.524101
0.159881
0.17636
0.07667
0.654679
-0.07711
-0.33663
-0.396623
-0.312853
-0.0587
0.0659688
0.749784
-0.463039
0.370729
-0.0275051
-0.438306
0.136113
-0.0917947
0.37819
-0.178849
-0.00691041
-0.30591
-0.072648
0.19325
0.803345
0.323777
0.746171
-0.325266
-0.314947
-0.38891
0.150796
0.252409
0.0428302
0.366484
0.137395
0.485823
0.260402
-0.0442637
-0.179693
0.0188764
-0.346645
0.871106
0.400685
0.63469
0.499529
-0.28137
-0.306899
-0.295234
-0.290716
0.0265088
-0.384752
0.102285
0.5829
-0.316421
0.00865582
-0.289099
0.168281
-0.339136
-0.379607
-0.179214
-0.304413
-0.33817
-0.324216
-0.314942
-0.138056
-0.387937
-0.126107
-0.295944
0.128858
0.647634
-0.237841
-0.290706
0.813372
-0.292733
0.280672
-0.250228
0.385106
0.075037
-0.296381
-0.409182
0.428456
-0.262663
-0.335281
0.185285
-0.289833
-0.0404318
-0.309695
-0.134336
0.0172727
0.561054
0.768444
-0.307222
0.217372
-0.331243
0.809316
-0.0288938
-0.32723
-0.0423415
0.753324
0.19088
-0.3345
-0.297324
0.447028
-0.227662
0.0199248
0.335995
0.2382
0.287059
-0.268063
-0.356575
0.676978
)
;

boundaryField
{
    FrontBack
    {
        type            empty;
    }
    Top
    {
        type            zeroGradient;
    }
    In
    {
        type            zeroGradient;
    }
    Bottom
    {
        type            zeroGradient;
    }
    Out
    {
        type            fixedValue;
        value           uniform 0;
    }
    circle
    {
        type            zeroGradient;
    }
}


// ************************************************************************* //
