/*--------------------------------*- C++ -*----------------------------------*\
| =========                 |                                                 |
| \\      /  F ield         | OpenFOAM: The Open Source CFD Toolbox           |
|  \\    /   O peration     | Version:  2412                                  |
|   \\  /    A nd           | Website:  www.openfoam.com                      |
|    \\/     M anipulation  |                                                 |
\*---------------------------------------------------------------------------*/
FoamFile
{
    version     2.0;
    format      ascii;
    arch        "LSB;label=32;scalar=64";
    class       surfaceScalarField;
    location    "11";
    object      phi;
}
// * * * * * * * * * * * * * * * * * * * * * * * * * * * * * * * * * * * * * //

dimensions      [0 3 -1 0 0 0 0];

oriented        oriented;

internalField   nonuniform List<scalar> 
1171
(
-0.946544
0.946544
0.76989
-1.07497
0.305076
-0.242169
-0.777804
1.01997
0.0534564
-0.065387
-0.276175
0.341562
-0.76989
0.0967462
0.673144
0.925612
-0.210926
-0.714686
0.830035
-1.01101
0.180978
-0.356216
-0.0364598
0.392676
-0.00308657
0.605937
-0.602851
-0.514575
0.939379
-0.424804
-0.421603
0.974446
-0.144411
0.259407
0.0899027
-0.34931
0.975595
-0.00114935
0.303504
-0.0440963
0.984693
-0.00909836
0.676354
-0.918523
-0.787688
0.608578
0.17911
0.308702
-0.823277
0.560102
-0.914938
0.354836
-1.07852
0.667445
0.41107
-0.644216
0.641129
0.0333176
-0.25306
0.219743
0.0214084
-0.641815
0.620406
0.467313
-0.503773
-0.853981
0.879527
-0.0255466
0.997002
-0.0123092
0.861981
-1.04841
0.186429
0.997837
-0.000834306
-0.7018
-0.0858882
1.23217
-0.804792
-0.427381
0.143856
-0.075824
-0.414643
0.490467
-0.273613
0.183953
0.0896592
-0.600991
-0.473975
0.968714
-0.106733
-0.0245425
0.863475
-0.838932
0.527939
0.704234
0.530113
0.0234433
0.44387
-0.786552
-0.108115
0.894667
0.571515
0.244458
-0.815973
0.0202212
0.62691
-0.647131
-0.508653
-0.569862
-0.359011
-0.689399
0.0280477
0.245024
-0.273072
-0.932795
-0.0388443
0.971639
0.374843
0.0178337
0.834261
0.0913517
-0.60342
-0.0407955
0.0374787
-0.824031
0.0778092
0.901103
-0.978913
-0.405923
0.0258862
0.380037
-0.71061
-0.222185
-0.67507
0.75288
0.621269
0.31811
-0.579408
0.991475
-0.82015
-0.171325
-0.0809593
-0.0547754
0.135735
-0.459019
-0.0447544
-0.307341
0.928611
-0.0129328
0.439202
-0.426269
-0.486085
1.0576
0.71099
-0.819105
0.391754
-0.0757692
-0.315985
0.837798
-0.837798
-0.910889
0.0396659
-0.315841
-0.677766
0.653224
-0.0324642
-0.143432
0.175897
0.879507
-0.0160317
1.03919
-0.794733
0.22346
-0.319676
0.0962164
0.970661
-0.1364
-0.676611
-0.0458952
0.722506
0.149647
-0.232223
0.0825753
0.787275
-0.998201
-0.443245
0.311327
0.131918
0.6663
-0.644891
0.846459
-0.385846
-0.460613
0.487447
-0.694269
0.0363256
0.657944
0.154688
0.664803
0.0499422
-0.714746
0.134525
-0.0948588
-0.513201
0.107278
0.0315893
-0.903186
0.871597
-0.551912
-0.757464
0.055664
0.500856
-0.0569864
0.27531
-0.83322
0.557911
0.423426
0.576574
0.599427
-0.561948
-0.378821
-0.0265241
0.405346
0.616847
0.220951
-0.672814
0.693035
0.0862135
0.884021
0.00390433
-0.680515
-0.763599
0.795188
0.618908
0.106333
0.361412
-0.467744
-0.156586
0.53826
0.0886491
0.944261
-0.870906
-0.0733551
0.648619
0.342856
-0.430971
0.704266
-0.597934
0.409928
0.150175
-0.0619916
-0.633765
-0.216251
0.850015
-0.163921
-0.673876
-0.612638
0.363643
0.248996
0.659203
-0.655299
0.309098
1.01332
0.025874
-0.763599
-0.145111
0.0641516
0.71099
0.778602
-0.778602
0.847522
-0.832547
-0.014975
-0.454447
0.877872
-0.193534
-0.319667
0.763705
-0.66958
-0.0941246
-0.857963
0.224198
0.108843
-0.712263
0.819105
-0.975692
-0.18386
0.181079
0.00278088
0.129821
-0.970297
0.840476
0.549719
-0.0196056
-0.2892
0.595564
-0.306363
-0.651906
0.781726
-0.160947
0.72483
-0.833406
0.108576
1.0105
-0.587966
-0.422533
0.71661
-0.0719374
-0.0131128
0.0131371
-2.4274e-05
-0.798259
-0.879838
0.102034
-0.677766
0.575476
-0.54959
0.0990476
0.678656
-0.777704
0.778574
0.16797
0.492395
0.507605
-0.0791242
-0.670032
0.749156
0.956138
-0.0118769
-0.71661
0.795188
0.180008
-0.433068
-0.0337823
0.00989913
0.0238832
0.675961
-0.437755
-0.238206
0.673144
-0.0267245
-0.155008
0.556938
0.119023
-0.0136009
0.00108031
0.0125205
0.00419455
-0.0173073
0.130496
-0.206265
-0.939549
0.0430199
-0.144361
-0.0533647
0.132707
0.750259
0.743354
-0.16678
0.552249
-0.453202
-0.163489
0.386949
0.626032
0.0471124
0.226904
-1.05945
-0.975692
0.317856
0.653224
-0.160345
0.0169127
-0.793279
0.969313
-0.176034
0.484144
-0.104107
0.79966
0.305731
0.2853
0.0182039
-0.681139
0.681139
0.232391
0.662277
-0.0166753
0.455877
0.473791
0.0178457
-0.0516281
0.547991
0.0017276
-0.651906
0.571355
0.192349
0.00565351
0.00748356
-0.626032
0.170537
0.798777
-0.00239596
-0.742256
0.744652
0.761071
-0.823372
0.0623014
-0.778574
-0.0334377
0.0462025
-0.0127648
0.0850618
-0.123009
-0.106226
0.229236
-0.00636398
-0.00723687
0.727432
-0.729828
0.89168
0.128293
-0.32511
-0.530923
0.856032
-0.00123735
0.00123735
0.154555
0.47697
0.642865
-1.11983
-0.192611
-0.540942
0.733553
-0.0192508
0.195147
0.383819
-0.234172
1.02406
-0.547094
0.752576
1.06153
-0.418662
0.190285
0.781726
0.637316
0.211312
0.668215
-0.673876
0.318861
-0.0369287
-0.00254162
0.0394703
0.883954
0.0341742
-0.918128
-0.628217
0.627383
0.545553
-0.628217
-0.637316
0.627383
-0.00651456
0.9344
-0.0427202
-0.616847
0.546789
0.0700578
0.534899
0.577516
-1.11242
0.490428
0.533636
0.574207
0.487611
-1.06182
0.530332
0.531195
0.546789
-0.514966
-0.476981
-0.598956
-0.53444
-0.15475
-0.00505994
0.00505994
0.533518
0.532423
-1.06686
0.728335
-0.366924
-0.961856
0.373889
-0.680408
0.458224
-0.010738
-0.877419
0.888157
0.454153
-0.0439887
0.927943
-1.00018
-0.911323
0.0592883
0.852035
0.388896
-0.188587
-0.200309
0.693637
-0.80037
0.941419
-0.881283
-0.0601365
-0.0354933
-0.835413
-0.153349
0.828723
-0.675373
-0.940002
0.904508
-0.671729
0.665484
0.00624543
-0.853183
0.0603973
0.792786
0.00344853
-0.00468589
0.425484
0.0587605
-0.893817
0.835057
-0.779274
0.700149
0.970045
0.0917159
-1.06176
0.0587219
-0.00175435
0.4071
-0.359712
0.0400362
0.890751
-0.901489
-0.72489
-0.878901
0.0434875
-0.131771
-0.897808
0.0165248
0.563153
-0.0109041
0.0482489
0.340647
-0.760873
0.82127
0.460613
-0.921408
-0.848286
0.0861144
-0.0426271
0.762072
-0.719445
-0.00965068
-0.767517
0.580191
0.18088
-0.00119966
0.929142
0.963797
0.906126
-0.889601
0.0459565
-0.0459565
-0.0879532
-0.257186
0.0685995
0.340055
-0.0221991
0.258575
0.919492
0.00742135
-0.0137853
0.659029
0.340971
0.798126
-0.600991
-0.747621
-0.685271
-0.601836
0.601836
-0.207291
-0.10855
0.649615
-0.9202
0.270585
-0.502366
-0.545102
0.312626
-1.00202
-0.935725
0.875589
-0.805036
0.848524
0.654318
0.198894
-0.853212
-0.679026
-0.178387
0.841132
-0.662746
0.0162335
0.00326226
0.00310757
-0.00636983
-0.0502681
-0.206918
0.962241
0.698048
-0.366073
-0.331975
0.497739
0.746218
-0.513827
0.0117977
-0.28541
0.0995494
0.757929
-0.857478
-0.347707
-0.0862382
0.137721
-1.00869
0.0905656
-0.721306
0.0971094
0.731939
-0.829048
-0.850279
0.128973
0.695251
-0.781489
0.23571
-0.358719
-0.611681
-0.0673449
0.369219
0.738557
-0.0342908
0.000553176
-0.000553176
-0.00397963
-0.00504555
-0.0318832
-0.0160359
0.0234573
-0.622585
0.338565
0.756201
-0.823291
0.0670891
-0.690921
0.788031
0.781142
-0.0858906
-0.68486
-0.165419
-1.10132
0.0207393
0.0252172
-0.523035
-0.838209
-0.830266
0.402885
-0.204152
0.235098
-0.0309453
-0.516715
-0.00632084
0.537476
0.712485
-0.0405212
-0.0128434
1.07604
0.500688
0.211111
-0.711799
-0.453197
-0.0635173
-0.00539984
0.0086621
0.688439
-0.904689
0.00628872
-0.00628872
-0.714971
0.712996
0.00197452
-0.404948
-0.136629
-0.693125
0.123766
0.62539
-0.0526885
-0.871511
-0.225443
0.203641
0.0218019
0.775371
-0.708282
0.337552
0.262969
-0.600521
-0.149771
-0.702602
-0.126446
-0.214282
-0.101677
0.470565
-0.515319
0.191693
0.713162
-0.904855
0.487447
-0.163398
-0.0407546
0.0941411
-0.195819
0.595829
-0.0942762
-0.501552
-0.284519
0.305051
-0.0205311
0.579259
0.149076
0.0785396
-0.310934
0.168852
0.142082
-0.163527
0.0184161
-0.308938
0.0693859
0.0284662
-0.0978521
0.843142
-0.338757
-0.0661913
0.555241
0.269435
-0.635508
0.505587
-0.505587
-0.240752
-0.508301
-0.246784
-0.508301
-0.658876
-0.848576
0.178996
-0.270157
0.74889
0.0462389
0.16409
0.574467
0.109999
0.1178
0.010079
-0.127879
-0.066516
0.673973
-0.973086
0.442163
-0.0208554
0.0752524
-0.054397
-0.748636
-0.176579
-0.56587
0.776981
-0.514647
-0.0102406
-0.185578
-0.338184
-0.0808593
0.0808593
0.0448596
0.00134287
0.138539
0.253514
-0.74335
0.17748
-0.023397
0.472423
0.527577
0.778689
0.0232861
0.0196322
-0.0429183
-0.298301
-0.573211
-0.548776
0.113479
-0.118408
0.00492888
-0.109821
-0.413943
-0.0877679
0.713158
-0.575629
-0.173007
-0.0650159
0.0234992
0.174642
-0.459523
-0.197212
-0.183895
-0.0223701
-0.481648
0.432889
0.0487588
-0.047906
0.294552
-0.864414
-0.535635
0.646642
-0.845868
0.696098
0.454123
-0.0310766
0.0571722
-0.0260956
0.0797487
-0.635617
-0.000703643
0.63632
-0.891482
0.641713
-0.729666
-0.097497
0.00708305
-0.00708305
-0.299137
0.437728
-0.0306278
0.00410089
0.0191852
0.584617
0.677672
-0.751027
0.014
0.00440879
-0.00385561
0.00420869
-0.00420869
-0.501756
0.650832
0.0142417
-0.0142417
-0.772276
-0.00853863
0.0119872
-0.511086
0.688566
0.588528
-0.586553
0.0688819
-0.0688819
-0.000946394
-0.0506817
0.0112529
-0.95192
0.529387
-0.532702
-0.00468589
0.596705
0.0147124
-0.611418
-0.707208
0.131578
-0.316886
-0.0134779
0.330364
-0.0224895
-0.0180317
-0.605614
-0.0300022
0.0252172
0.0057607
0.000528015
-0.00314733
0.00314733
-0.39326
0.295407
-0.446631
0.135204
0.662922
-0.137333
0.0025544
-0.0025544
0.508749
-0.118876
0.0083204
0.0181341
-0.000477195
0.603062
-0.721938
-0.726391
0.660199
-0.0949738
0.326931
0.762956
-0.00397963
-0.0937409
0.101225
-0.672198
0.551181
-0.317349
-0.110502
-0.0254236
-0.0258206
0.0035963
0.475519
-0.0860311
-0.415521
0.680066
0.000851248
0.00639577
-0.00639577
-0.194026
-0.139746
-0.571834
0.618073
-0.137303
0.509533
-0.161871
0.838225
0.802946
0.0057607
-0.701596
0.647938
0.0351408
-0.0297811
-0.00535966
0.612293
0.093535
-0.0121136
0.0667773
-0.0546638
0.00896623
-0.00896623
-0.785854
0.0229254
-0.0436804
0.0618145
-0.0865935
0.0865935
0.00440879
-0.00142523
0.720511
0.0782658
-0.317751
-0.0961924
-0.519914
-0.0298751
-0.0669823
0.0669823
-0.0438647
0.0809009
-0.0809009
0.0267195
-0.0267195
-0.355948
-0.0750224
0.241208
0.0701188
0.0412022
-0.76175
-0.0612271
0.161003
0.0190044
-0.245939
0.0807497
-0.0807497
-0.466436
-0.0488836
0.231069
-0.0113266
0.00261337
-0.649911
0.656426
0.0245096
-0.0683743
0.0321744
-0.082856
-0.012019
-0.156348
0.168367
-0.150698
-0.208021
-0.0815988
0.0815988
0.0550406
-0.0550406
-0.029085
-0.0942034
0.123288
-0.0205971
-0.188303
-0.00763019
0.00377458
-0.243486
0.538893
-0.0258187
0.445081
0.00716239
0.00535816
-0.0512522
0.0512522
-0.73037
0.318599
-0.128315
-0.209054
-0.0231687
-0.016973
0.0195864
0.199327
0.0299092
-0.00125485
0.000777651
0.0837619
0.0297174
0.0554732
0.10553
-0.0188854
0.00604193
0.000107051
0.00457193
0.00598122
0.00668381
-0.012665
-0.00198698
0.00801363
0.0280233
-0.0280233
0.0498043
-0.0421891
0.0421891
-0.19086
0.00993008
0.0249024
-0.0756782
0.0177533
0.0768353
-0.0768353
0.248086
-0.238197
0.0874987
-0.0673376
-0.170859
-0.0160265
0.0160265
0.406254
0.251689
-0.519438
-0.080586
-0.0378222
0.541458
0.0115773
-0.0638318
-0.461898
0.0766921
-0.153443
0.170392
-0.0169487
-0.0471179
0.0471179
0.839648
-0.592649
-0.0103504
0.00836343
-0.00573426
-0.285129
-0.000151241
0.00499474
-0.0443144
-0.624329
0.568797
-0.660914
0.0146165
0.190428
0.0157301
0.0245327
-0.159177
-0.334993
0.259315
-0.0561023
0.0270173
0.171252
0.133798
0.2287
0.26514
-0.24941
0.00650924
-0.113877
-0.222532
0.068099
-0.0126258
0.161358
-0.136825
-0.0683987
0.152161
-0.397945
0.122001
-0.104248
0.0584362
-0.473957
0.175387
0.177051
-0.245449
0.00675879
-0.17703
0.176879
0.00391432
0.148246
-0.0279474
0.0501408
0.458608
0.0119968
0.0194641
-0.00665954
0.035994
-0.239481
-0.203074
0.59195
0.169362
0.0617077
0.0782322
-0.0634133
0.0759779
-0.0813376
-0.0302682
0.166834
-0.152218
0.0230604
-0.00657584
-0.104953
-0.0287838
0.0291023
0.251548
-0.00777503
-0.00687809
-0.312128
-0.00810165
0.217087
0.140466
0.178133
0.05711
0.0974697
0.04934
0.535277
-0.012558
0.103367
0.0428941
0.0657696
-0.108664
-0.267748
-0.197576
0.0267164
-0.22241
0.285411
)
;

boundaryField
{
    FrontBack
    {
        type            empty;
    }
    Top
    {
        type            calculated;
        value           uniform 0;
    }
    In
    {
        type            calculated;
        value           uniform -1;
    }
    Bottom
    {
        type            calculated;
        value           uniform 0;
    }
    Out
    {
        type            calculated;
        value           nonuniform List<scalar> 10(1.06464 1.04987 1.07594 1.06397 1.06513 1.06564 1.06594 1.04747 0.746339 0.755085);
    }
    circle
    {
        type            calculated;
        value           uniform 0;
    }
}


// ************************************************************************* //
