/*--------------------------------*- C++ -*----------------------------------*\
| =========                 |                                                 |
| \\      /  F ield         | OpenFOAM: The Open Source CFD Toolbox           |
|  \\    /   O peration     | Version:  2412                                  |
|   \\  /    A nd           | Website:  www.openfoam.com                      |
|    \\/     M anipulation  |                                                 |
\*---------------------------------------------------------------------------*/
FoamFile
{
    version     2.0;
    format      ascii;
    arch        "LSB;label=32;scalar=64";
    class       volVectorField;
    location    "11";
    object      U;
}
// * * * * * * * * * * * * * * * * * * * * * * * * * * * * * * * * * * * * * //

dimensions      [0 1 -1 0 0 0 0];

internalField   nonuniform List<vector> 
808
(
(0.895992 -0.0113564 0)
(1.02268 -0.0404551 0)
(1.16754 0.0315381 0)
(1.06921 0.0113212 -2.11338e-21)
(1.46866 -0.291882 0)
(0.952207 -0.0341073 0)
(1.1316 -0.0555798 1.9319e-21)
(1.06933 -0.00276842 0)
(1.34619 -0.22903 2.52965e-20)
(1.23138 -0.0937583 -1.14175e-20)
(1.15832 -0.0899087 5.28129e-21)
(1.3747 -0.261858 0)
(0.976042 0.000957977 0)
(0.729267 -0.0285586 0)
(1.00775 0.0299962 2.28712e-20)
(1.03675 0.0100841 0)
(0.897117 0.0320755 -7.46438e-21)
(0.971238 -0.00158688 -4.55175e-23)
(1.17791 0.0213429 0)
(1.12194 0.00712508 0)
(1.18817 -0.0947363 -7.37098e-21)
(0.928936 0.126729 1.04423e-19)
(1.07369 0.00631607 -8.43329e-21)
(1.17675 -0.0335992 0)
(0.954751 0.186902 0)
(1.3335 0.0231741 -3.64e-20)
(1.27829 -0.181518 9.63546e-21)
(0.9564 0.00641569 -2.99041e-21)
(1.04656 0.00611047 0)
(1.02878 -0.0109376 -1.90907e-22)
(0.964223 0.00265206 2.63801e-24)
(1.12584 -0.00703323 0)
(1.00726 -0.00608776 0)
(1.05615 0.00866743 2.37821e-21)
(1.3095 -0.0811019 9.76967e-21)
(0.740755 -0.110706 1.08697e-19)
(0.857752 -0.0285878 7.20894e-22)
(0.99663 -0.0211686 4.40184e-22)
(1.17478 0.0391903 -6.37224e-23)
(1.07308 0.000159679 0)
(1.26873 -0.0698326 -1.94275e-20)
(1.27603 -0.135381 0)
(1.0023 -0.00246754 -3.22663e-21)
(1.10226 -0.0310521 2.97321e-21)
(1.22904 -0.0814616 0)
(1.00768 0.0180105 -1.48037e-20)
(0.972502 0.00656856 5.45535e-23)
(1.25102 -0.2538 7.66238e-21)
(1.14912 0.0624586 1.59289e-21)
(1.40234 -0.191015 -3.65443e-20)
(1.12348 -0.0592463 -2.58123e-21)
(1.14969 -0.0732721 0)
(1.11586 -0.00102323 2.89359e-21)
(1.05778 0.013699 0)
(1.32211 0.224264 6.56713e-21)
(1.064 0.0619292 4.267e-22)
(1.06145 0.0120648 0)
(1.12201 -0.0846781 2.83757e-21)
(1.23854 -0.0983625 1.22557e-20)
(1.1275 0.0446122 1.31038e-21)
(-0.267613 -0.00269954 0)
(1.21465 -0.214256 -7.91737e-21)
(1.10385 -0.0670785 0)
(1.43731 -0.0977794 -2.98769e-20)
(1.09884 -0.0435017 -4.54675e-21)
(1.04055 -0.0316186 -3.75497e-21)
(1.33374 -0.145546 2.92735e-20)
(0.679341 0.00942212 0)
(1.1101 -0.0685075 0)
(1.43065 -0.355078 0)
(0.840415 0.0360017 -5.9319e-23)
(1.22995 -0.146308 -3.97326e-20)
(0.988177 0.051481 0)
(1.05784 -0.0364037 2.52762e-22)
(1.11954 -0.334589 -5.46565e-20)
(1.1159 -0.0599663 -1.58963e-22)
(1.14471 0.0323359 8.89601e-22)
(1.32581 0.495888 2.52625e-20)
(1.10972 -0.0477304 0)
(1.0167 0.283945 -1.70628e-19)
(1.3513 0.00764534 2.10398e-20)
(0.705182 0.017642 0)
(0.834217 0.00857807 -8.01322e-22)
(0.966903 -0.109504 4.03683e-21)
(1.11031 -0.0538768 2.76228e-22)
(1.19327 0.0219606 2.17482e-21)
(1.2709 -0.238067 0)
(1.35134 0.283137 0)
(1.09503 0.00490074 -3.36797e-21)
(1.41808 0.0618105 3.93034e-20)
(1.07639 -0.0140262 7.42333e-21)
(1.32071 -0.130261 -1.4822e-21)
(0.965956 0.0259514 1.52128e-20)
(1.00326 -0.0247613 0)
(1.11652 0.0151245 6.29972e-22)
(1.30212 -0.0924456 -7.908e-20)
(0.863325 0.00764009 -1.96327e-21)
(1.34989 -0.0639318 0)
(1.32947 -0.0947714 0)
(1.41506 -0.11382 -4.5168e-20)
(1.08087 -0.0643327 9.04288e-22)
(1.12348 0.0110832 1.4247e-22)
(0.952358 0.0312328 6.50331e-21)
(1.18648 0.0164462 -1.0459e-21)
(1.34685 0.03822 -3.06326e-20)
(0.999065 0.00297751 8.46558e-21)
(1.45006 -0.0650979 0)
(1.05106 0.0184465 0)
(1.09725 0.0348351 -1.21548e-21)
(1.2 -0.221585 -6.33586e-21)
(1.28678 0.0204848 1.58258e-20)
(1.04785 0.0472289 -1.15451e-19)
(1.12905 0.0489077 6.00778e-22)
(1.15026 0.0978942 3.56651e-21)
(0.873106 -0.00369836 0)
(0.916729 -0.04532 7.3413e-20)
(1.13751 0.0271608 1.97223e-21)
(1.42332 -0.268772 -1.75819e-20)
(1.09287 -0.0358512 -8.19257e-23)
(0.919536 0.0104157 2.6292e-21)
(-0.380964 -0.00329629 0)
(0.859174 -0.0128543 2.08678e-21)
(0.801933 0.0298222 0)
(1.07073 0.000695433 -6.54698e-23)
(1.01067 0.0284539 0)
(1.31375 0.317904 1.012e-20)
(1.03179 -0.0522874 -2.71702e-20)
(1.23595 0.128267 2.35587e-21)
(1.14958 -0.0623576 0)
(1.09443 -0.023602 0)
(0.569193 -0.050097 0)
(1.07207 -0.0254096 -9.39101e-22)
(1.25249 -0.0496423 1.14206e-20)
(1.06791 0.114783 -2.8214e-20)
(0.883825 -0.00274205 0)
(1.1061 0.0264538 3.20432e-22)
(1.14145 0.0365387 2.3533e-21)
(1.07635 -0.00109699 -8.86766e-22)
(0.966031 0.0353813 5.91065e-22)
(1.13039 0.0150851 -1.19438e-22)
(0.0122569 0.079378 0)
(1.09375 -0.0214541 -8.34132e-21)
(1.18639 0.0421172 1.53381e-21)
(0.718845 0.0364679 6.92918e-23)
(1.25923 0.164806 1.70458e-21)
(1.08784 0.0435114 3.72157e-21)
(1.04707 0.01892 1.34001e-20)
(0.991295 0.0291229 0)
(1.12582 -0.116297 -1.46913e-20)
(1.05955 0.0111541 0)
(0.901477 0.0298244 -2.04543e-22)
(0.971005 0.283811 1.36698e-19)
(0.952555 0.0354611 0)
(0.818853 0.102941 0)
(-0.152648 0.0298861 -7.51845e-20)
(1.33853 0.124075 -1.55341e-20)
(0.645495 -0.0206488 0)
(1.45593 0.00286454 0)
(1.14986 0.0167368 0)
(1.35818 0.0752295 1.73949e-20)
(-0.0344355 -0.0936925 0)
(-0.0692338 0.105159 3.64312e-20)
(0.964672 -0.0654499 7.80084e-20)
(0.991296 0.0429498 -3.31315e-22)
(0.857737 0.0045338 0)
(1.03256 -0.0416518 1.03783e-21)
(0.891556 0.0228843 0)
(0.713582 -0.0488337 -8.431e-20)
(1.0095 0.0469598 -1.57209e-21)
(1.07936 -0.0581762 1.8421e-21)
(1.09074 0.0179515 2.47826e-21)
(1.01545 0.0688928 -9.84186e-21)
(0.787288 -0.00222922 -3.7049e-21)
(1.13563 -0.348465 5.09909e-22)
(0.912305 -0.022539 0)
(1.0621 -0.00248346 -1.05338e-20)
(0.872302 0.0110563 -7.34486e-21)
(1.37853 -0.177972 2.25038e-21)
(0.701038 0.0334396 0)
(1.03143 -0.1452 0)
(1.07197 -0.0367177 1.45097e-21)
(1.39509 0.211042 1.24391e-20)
(1.11157 0.0188471 6.53322e-22)
(1.03763 0.0189216 1.80896e-20)
(0.76825 0.0126723 -8.50348e-20)
(0.812473 0.00320998 1.47562e-20)
(1.13526 -0.024048 -4.88389e-22)
(1.39463 -0.0897138 -5.7086e-21)
(1.07681 -0.0565013 -3.04131e-21)
(1.33145 -0.0451835 4.89175e-21)
(-0.170078 0.0571068 5.51771e-20)
(1.28588 -0.0257896 0)
(0.587161 -0.0108673 0)
(1.06595 -0.0240728 -4.98355e-21)
(1.10445 0.0101873 -1.85891e-21)
(0.0769247 0.085821 0)
(0.889884 -0.00976879 -2.91454e-23)
(1.07562 -0.0301342 -1.65581e-21)
(1.01847 0.00357765 1.02031e-21)
(1.0801 0.0363675 -5.47914e-21)
(1.00916 0.0233615 2.5201e-21)
(1.01996 -0.0155659 1.46061e-21)
(1.04781 -0.0203849 0)
(0.320654 -0.0380674 0)
(1.04741 -0.0630997 0)
(1.16255 0.103265 -3.27181e-20)
(-0.0344119 -0.102161 4.74875e-20)
(1.08977 -0.00234763 -9.52042e-24)
(1.16863 0.0536489 0)
(0.751952 0.0297162 -4.44589e-22)
(1.09187 0.0081892 1.20206e-21)
(-0.00680718 -0.0384562 -1.47314e-19)
(0.810004 -0.0197137 -5.31418e-20)
(0.594554 -0.019952 0)
(1.06782 -0.00722631 0)
(0.915717 0.0547928 -8.17335e-23)
(0.999622 -0.114388 5.64372e-21)
(1.28317 0.395918 4.46911e-21)
(1.07087 0.00121988 -6.05311e-23)
(1.0891 -0.0580271 -3.64392e-21)
(1.06339 -0.00710428 0)
(1.36697 0.421619 -4.75802e-20)
(0.637498 -0.000538459 0)
(0.853958 0.00361896 -1.5476e-21)
(1.06054 0.00871934 1.41105e-22)
(0.598505 -0.00222692 0)
(1.10077 -0.00508425 0)
(0.0848429 -0.041875 -4.84255e-20)
(1.14339 -0.059042 -6.84429e-21)
(0.833323 -0.00282408 1.46534e-21)
(0.991876 -0.00355655 0)
(0.610707 -0.00786916 0)
(0.842618 0.000333305 -1.54775e-21)
(0.623242 -0.00630826 -1.75439e-22)
(1.31885 0.0163383 3.91339e-22)
(1.13807 0.0379609 -3.35107e-21)
(0.81993 0.0032137 -1.46196e-21)
(1.06823 0.0105968 1.15699e-22)
(1.06854 0.00118916 5.70358e-23)
(0.615991 0.00329763 3.89129e-21)
(1.06802 0.0100877 3.40638e-22)
(1.06538 0.00123142 0)
(1.05874 -0.00219051 0)
(0.60162 0.0102984 0)
(1.04902 0.00560829 0)
(1.07651 -0.00446147 -4.95085e-22)
(1.06469 0.000189565 0)
(1.06465 0.00648417 0)
(1.06485 0.000961854 0)
(1.09561 0.0194246 0)
(-0.0193516 -0.0372764 4.63299e-20)
(1.06895 -0.000615455 2.3396e-22)
(1.06982 0.00309641 0)
(1.35866 0.038075 2.28459e-20)
(1.07352 -0.00611743 5.64729e-22)
(1.0971 0.0607537 -1.50382e-21)
(1.07723 -0.014725 3.52551e-21)
(1.066 3.04309e-06 0)
(0.605476 0.000492103 3.16287e-21)
(1.05346 0.0428874 9.57215e-21)
(1.14969 -0.0311759 0)
(1.0749 0.00894391 -1.36556e-21)
(1.06657 -0.00650669 2.38838e-21)
(0.648111 0.1166 -9.89201e-21)
(1.10397 -0.0196471 2.31321e-21)
(1.08349 0.0109615 -3.79032e-21)
(1.04775 0.0248439 0)
(1.14741 0.040328 -1.18931e-20)
(1.09618 0.0235172 -3.09424e-21)
(0.868805 -0.0163618 7.01393e-21)
(1.00624 0.0501979 0)
(-0.018986 -0.0205732 0)
(0.978251 0.114567 -1.6594e-20)
(1.0549 0.00746682 0)
(1.27812 -0.0788085 2.41062e-20)
(1.07484 0.00745159 7.31286e-22)
(1.06976 0.0154118 3.64348e-21)
(1.08065 0.00544702 -2.0804e-21)
(1.35944 -0.0572199 1.15826e-19)
(1.01587 -0.322013 5.51794e-20)
(1.06753 -0.0104667 -2.84629e-22)
(1.00301 0.0515708 0)
(1.03761 0.0378934 0)
(0.901757 -0.00171023 -2.22911e-20)
(1.26652 -0.110312 -4.44019e-20)
(1.0696 -0.00492721 0)
(0.745839 -0.0332984 1.11517e-20)
(0.476489 0.0667679 0)
(0.97541 0.00613178 5.22409e-21)
(0.88254 -0.0178568 -1.27294e-20)
(0.77258 0.0188582 7.29727e-22)
(1.08967 -0.0160913 0)
(1.10219 0.0244073 -8.52989e-22)
(1.1225 0.0466804 3.53314e-21)
(0.919901 -0.00688344 -7.2028e-21)
(1.0831 -0.00783347 -3.20999e-21)
(0.952006 0.0324127 0)
(1.09246 0.0729078 0)
(1.12924 -0.0385215 5.09707e-21)
(0.951201 -0.0117749 -5.27718e-21)
(1.08404 0.00316025 4.72139e-21)
(1.05554 -0.00202798 -2.21406e-21)
(1.03016 0.0459382 5.07336e-22)
(1.05426 0.00172534 0)
(0.409566 -0.137031 1.34852e-20)
(1.32428 0.0656089 -2.68764e-20)
(0.955925 0.0163513 -8.09323e-21)
(0.191838 0.082456 1.04593e-20)
(1.42607 -0.151694 2.61468e-20)
(0.919311 -0.0505433 7.96978e-20)
(1.14201 -0.0218445 -5.24081e-21)
(1.06274 -0.00631336 -1.17733e-22)
(-0.0548903 -0.112299 -8.13089e-21)
(0.997854 -0.00554269 0)
(1.03465 -0.0868275 -1.52671e-20)
(0.854605 -0.0358242 -7.96685e-22)
(1.0688 -0.0458899 -3.00235e-22)
(0.903228 -0.0366978 -1.14317e-21)
(0.633543 -0.0088447 5.57688e-22)
(1.40741 -0.386704 -1.51144e-20)
(1.08349 0.0432938 0)
(1.04815 -0.00611859 -8.04515e-22)
(1.11483 0.0147401 -4.57788e-22)
(1.1407 -0.00534013 0)
(1.01595 0.00354027 -6.7363e-21)
(1.11945 0.0559751 7.32093e-22)
(0.866721 -0.0518442 1.83677e-20)
(1.14653 -0.0421066 1.15124e-20)
(1.00761 -0.000544756 3.85904e-21)
(-0.0435331 -0.0326227 0)
(0.555023 0.170559 7.46762e-21)
(1.10625 0.00966223 0)
(0.996786 0.179543 2.59479e-21)
(0.99157 0.189365 0)
(1.11654 -0.0192078 -3.73382e-21)
(1.01575 0.0267016 0)
(1.12013 -0.0244755 0)
(1.4003 -0.133769 2.29342e-20)
(0.793944 -0.0826868 0)
(1.19706 -0.131452 1.3507e-20)
(1.05376 0.0104887 1.13783e-22)
(1.03126 0.0484917 5.5014e-22)
(1.25093 -0.0818054 -1.49579e-20)
(1.24812 0.113399 -9.71609e-21)
(1.16979 -0.0592902 1.17634e-20)
(1.11703 0.0574635 0)
(1.16644 -0.0694247 0)
(1.07681 0.0513274 1.12461e-21)
(1.22124 -0.0369927 0)
(1.42311 0.207337 -3.01462e-20)
(0.879701 -0.0728503 3.12986e-22)
(1.02649 0.0158765 1.61602e-20)
(1.26397 0.0474005 -4.45024e-22)
(-0.0158278 0.00321914 0)
(-0.026576 -0.06186 0)
(0.108152 -0.0230394 -4.40429e-20)
(-0.0440486 -0.119807 0)
(0.82183 -0.0819296 -1.0927e-20)
(1.17872 0.0482683 3.80551e-22)
(1.13889 -0.0739206 -1.20018e-21)
(1.20714 -0.0858071 -3.01466e-21)
(1.19997 -0.0502015 0)
(0.8214 -0.0065501 -1.33069e-21)
(1.11548 0.0454151 0)
(1.08898 -0.00809055 4.90062e-22)
(0.496287 -0.108791 0)
(0.852927 -0.0788567 -3.20101e-22)
(1.09398 0.0500546 0)
(1.0941 -0.0114833 0)
(0.766291 0.0677713 5.84078e-20)
(0.731132 -0.0581124 -1.85372e-21)
(1.05475 -0.00299079 1.15205e-21)
(1.01521 0.0147301 -7.91755e-21)
(0.159263 -0.0929448 0)
(1.17704 -0.105929 -1.61831e-20)
(1.21271 0.0943533 -8.33834e-21)
(1.16526 -0.0930167 9.85696e-23)
(0.798011 -0.051776 6.39676e-21)
(-0.0561004 -0.0659092 -9.96891e-20)
(1.12124 0.0807678 0)
(-0.0358416 0.0461496 0)
(1.14962 0.0933117 -1.57497e-21)
(0.58256 0.0117736 -6.88426e-21)
(1.08434 -0.011279 -4.95865e-21)
(1.08922 -0.0373388 0)
(1.1515 -0.0706926 9.71772e-22)
(1.23844 -0.149405 1.40302e-20)
(0.525466 -0.0502018 -9.34343e-21)
(1.13604 -0.0335512 2.68139e-21)
(1.15787 -0.0811399 8.02319e-23)
(0.117233 -0.00427952 1.00006e-20)
(1.20799 -0.0868601 -4.85047e-21)
(1.1178 0.0498429 0)
(1.12509 0.0675089 0)
(1.17649 -0.0547533 4.64245e-21)
(1.16439 0.0945841 7.53599e-21)
(0.647064 -0.15581 -2.61168e-20)
(1.19291 -0.123992 -9.81652e-21)
(1.10468 0.0732714 -8.72397e-22)
(0.487325 -0.0115495 3.85518e-22)
(0.352237 -0.0524793 -1.06801e-19)
(-0.030911 -0.2053 2.09708e-20)
(1.1713 0.183338 -6.81863e-21)
(1.22855 -0.493444 5.53822e-21)
(1.41903 0.0880616 -1.98625e-20)
(1.19337 -0.0488574 -5.50158e-21)
(0.934122 -0.230315 9.13226e-20)
(-0.252869 -0.0774153 0)
(1.0696 0.0160862 -4.3732e-22)
(0.205897 0.213901 -1.2831e-20)
(1.14334 0.0967917 1.36283e-21)
(1.10018 -0.0318163 4.87394e-21)
(1.06648 0.0310278 0)
(0.704803 -0.0238112 0)
(1.17366 -0.0493116 0)
(1.25984 0.19479 -3.49014e-21)
(1.2652 -0.0111177 -3.27935e-20)
(1.1443 -0.0487921 -4.96046e-21)
(0.603864 0.0127808 0)
(0.750762 0.0050163 0)
(0.760663 -0.00119462 1.82467e-22)
(0.604479 -0.0113471 0)
(1.09346 0.00841079 0)
(1.01947 -0.0118865 2.13586e-20)
(0.3471 0.0706699 0)
(0.942765 0.01516 0)
(1.05764 0.0136217 0)
(1.17847 0.181366 1.91564e-21)
(1.26349 0.059387 1.47603e-20)
(0.960331 -0.0317874 2.31517e-21)
(1.28257 -0.400746 -1.07375e-19)
(0.6098 -0.0553336 -3.98062e-21)
(1.19371 0.0465538 3.93972e-21)
(1.12021 -0.0108002 0)
(-0.404562 -0.12164 0)
(-0.270081 0.0419174 0)
(1.1569 -0.0416719 -9.50262e-21)
(1.31716 -0.291777 -2.74555e-20)
(1.29448 0.143007 0)
(1.07122 0.0545514 -1.72851e-21)
(0.432304 -0.118114 0)
(1.50423 -0.177006 7.29821e-20)
(0.414393 0.523286 1.03826e-19)
(0.26313 -0.0428512 0)
(1.08879 -0.277513 1.15254e-19)
(0.399173 0.01789 0)
(-0.223035 -0.0474377 9.48126e-21)
(1.35281 0.126828 0)
(-0.0635107 -0.00174302 2.63597e-22)
(0.983484 -0.0499309 0)
(1.22228 -0.0883935 -9.90992e-21)
(-0.156483 -0.0585063 -8.0917e-21)
(1.10903 -0.0392857 -1.72846e-21)
(1.17076 -0.111878 -5.56653e-21)
(0.569587 -0.510141 -9.00992e-20)
(1.07298 -0.0131758 -9.83636e-22)
(1.19253 -0.130104 1.70169e-21)
(1.18283 0.247239 -1.28247e-20)
(1.13709 -0.111892 -8.82829e-22)
(1.15564 -0.0293143 -2.10571e-21)
(-0.135714 -0.147068 -6.7868e-20)
(0.0628273 0.0959553 -8.41996e-21)
(1.2047 0.0761867 1.42289e-21)
(1.05592 -0.0515352 0)
(0.622186 -0.000999462 -7.38473e-21)
(1.39361 -0.443381 8.22124e-20)
(0.913811 -0.0804187 -5.83321e-20)
(1.44679 0.139611 9.14582e-20)
(1.08557 -0.0567822 -9.47862e-22)
(1.19581 -0.0832191 5.11935e-21)
(1.06288 -0.00775185 0)
(1.1842 -0.0142458 0)
(1.25175 -0.0759057 4.20717e-21)
(1.0897 -0.0209873 -4.51267e-21)
(1.17412 -0.129804 1.24401e-21)
(1.06614 0.0384626 -2.3895e-21)
(1.45027 -0.0292367 -5.40152e-20)
(0.45304 0.0358597 0)
(1.22334 -0.0890933 -2.29473e-22)
(1.31773 0.116847 0)
(1.08824 0.0610234 2.78043e-23)
(1.14282 0.0136562 0)
(1.04797 -0.00767103 1.0204e-20)
(1.23183 0.0240444 2.16631e-20)
(1.10199 -0.00472634 0)
(0.0516993 -0.0292761 1.55047e-19)
(0.882348 -0.208687 -7.16264e-20)
(1.30997 -0.0285227 -3.36956e-20)
(-0.126949 -0.051445 4.33774e-20)
(1.19068 0.0454384 4.93917e-22)
(1.02873 -0.00774618 -2.34689e-21)
(-0.120625 -0.00901841 -4.52252e-20)
(-0.0313079 0.027376 -2.85936e-20)
(1.01575 -0.0309117 0)
(-0.0265606 -0.0304778 0)
(1.24641 0.0856931 0)
(0.111459 -0.0996671 0)
(1.10491 -0.0303378 0)
(0.133114 0.0310344 0)
(1.10578 0.0628007 0)
(1.19119 0.185338 0)
(1.26381 0.119662 -1.66101e-21)
(0.570308 -0.282868 -2.12168e-20)
(-0.234387 0.0641639 0)
(1.11516 -0.10189 6.0699e-20)
(1.07504 -0.00022094 1.10523e-21)
(1.37476 0.0603045 0)
(-0.0364586 -0.0389545 0)
(1.15681 -0.000839903 8.25787e-21)
(1.16137 -0.0211544 -3.69309e-21)
(1.17307 0.390318 0)
(0.226233 -0.0740088 5.85188e-20)
(1.12105 0.0574481 4.83199e-22)
(0.229859 -0.0512436 -5.2522e-20)
(-0.0610762 0.0525016 -3.48225e-20)
(-0.0348442 0.0496913 8.89736e-20)
(0.629348 0.0890271 2.76816e-20)
(1.06865 -0.00563652 2.2085e-21)
(1.11471 0.0717565 4.9111e-21)
(1.02247 -0.00815499 0)
(1.07099 -0.0680776 -1.91973e-20)
(1.23152 0.0837536 -1.58639e-20)
(-0.0101214 -0.020462 1.02651e-19)
(0.980292 -0.0718183 -5.68255e-20)
(0.699993 0.0462123 1.28126e-20)
(1.07486 0.000578602 -2.69167e-21)
(0.0717386 -0.0303252 3.3504e-20)
(0.241232 -0.0378574 -4.74295e-20)
(0.379469 -0.0575225 -5.30467e-20)
(1.18874 0.137745 -1.3115e-21)
(-0.0520883 -0.0309236 0)
(1.04195 0.110106 5.50238e-21)
(1.18812 -0.11978 9.22556e-21)
(1.1322 -0.0929245 -8.89488e-21)
(1.28881 0.00781538 0)
(1.51055 -0.232237 7.2196e-20)
(1.07584 -0.000180489 -2.14319e-21)
(-0.0120898 -0.0322459 -3.46384e-20)
(0.318054 0.0902639 0)
(0.940694 0.00946735 -1.46653e-21)
(1.12319 0.0288617 -1.9088e-21)
(0.752799 -0.145015 1.61577e-20)
(1.15803 -0.00176417 -3.16674e-21)
(1.11856 0.0446299 0)
(1.12878 -0.172941 -1.465e-20)
(-0.0803728 -0.107324 -6.83402e-20)
(1.325 -0.0229641 2.63502e-20)
(1.10475 0.174074 -8.93326e-21)
(1.06627 0.0284559 2.73284e-21)
(-0.0363493 -0.0478168 1.55111e-20)
(-0.0291991 0.0475437 -6.89371e-20)
(0.74969 0.0227571 0)
(0.858903 0.184437 0)
(1.15405 0.0954959 -9.08869e-21)
(1.05308 0.0695051 8.9926e-21)
(1.07152 -0.0011887 0)
(0.488917 -0.0603086 5.12175e-20)
(0.740462 0.0910237 -1.24457e-20)
(1.09957 0.10835 0)
(1.06181 0.0334594 0)
(1.40375 0.166 0)
(1.12609 -0.00453466 0)
(1.1617 0.0459107 1.84638e-21)
(-0.0428795 0.0466357 3.80354e-20)
(1.09833 0.00705987 3.31822e-21)
(1.39841 -0.202526 -8.25037e-20)
(1.20329 0.0516385 -2.90122e-21)
(-0.0398729 0.0201855 0)
(1.16459 -0.102639 0)
(0.769757 -0.00282165 -6.94462e-22)
(0.543151 0.00912731 -6.31675e-20)
(0.073309 0.0362461 5.10563e-20)
(1.00495 -0.00776446 1.15752e-21)
(0.734515 -0.270584 0)
(0.668115 -0.0905948 0)
(1.16744 0.0286919 0)
(0.54353 0.517558 2.7471e-20)
(-0.022059 0.0318569 -3.19578e-20)
(1.06678 -0.00235322 -1.32754e-21)
(-0.0192834 -0.052176 6.53683e-20)
(1.07322 -0.0195254 1.53093e-21)
(1.17651 0.314857 2.44603e-20)
(1.11334 -0.092697 6.42099e-21)
(0.306497 -0.0731241 8.85695e-20)
(1.06009 0.0460965 2.87152e-21)
(1.19462 -0.129953 0)
(0.563511 0.273375 0)
(1.041 -0.00246204 3.73183e-21)
(-0.217347 -0.00997502 0)
(0.601663 0.0246616 -4.07554e-22)
(0.598135 -0.413213 -3.08498e-21)
(0.242435 0.0496283 -1.18785e-19)
(1.12247 -0.226538 2.90296e-20)
(1.04319 0.367048 9.28165e-21)
(0.978147 0.0206956 0)
(1.09013 0.00940952 2.05107e-22)
(0.766962 0.00517355 0)
(1.02575 0.00450337 -2.25824e-22)
(0.426013 -0.0192858 0)
(0.712323 0.135127 0)
(0.991455 -0.0250691 6.28553e-22)
(1.44788 0.167254 -1.77639e-20)
(1.07037 -0.0123237 1.58507e-21)
(0.517665 -0.48681 0)
(1.13108 -0.155989 1.32223e-21)
(0.80662 0.382382 6.67805e-20)
(-0.0393235 0.020774 1.25474e-21)
(1.21457 -0.0279933 1.42919e-20)
(1.21383 0.0252924 -1.72127e-20)
(1.08762 -0.0206875 5.82756e-22)
(0.820081 -0.0146306 7.42625e-22)
(0.0636735 0.0187807 4.01538e-20)
(-0.021474 -0.018589 -5.76394e-20)
(-0.248988 -0.0159076 0)
(-0.292302 0.13275 0)
(1.17663 -0.611941 3.16297e-20)
(1.15045 -0.0374885 2.05473e-21)
(0.879316 -0.461004 -4.27514e-20)
(1.03526 0.126412 -1.23139e-20)
(1.37713 0.195618 3.86429e-20)
(0.607823 0.423693 0)
(0.247742 0.419603 -1.09461e-19)
(0.598025 0.486481 0)
(0.0408122 0.0473589 0)
(1.11732 -0.477445 0)
(-0.0600828 0.0315803 -4.85863e-22)
(1.19816 -0.00708453 0)
(0.91247 0.20012 -2.52654e-20)
(0.598814 0.698102 2.06627e-20)
(1.3212 0.218758 8.99517e-21)
(-0.0300066 -0.0885917 -1.08731e-19)
(0.821849 0.225282 -5.12858e-21)
(0.45674 0.145631 -1.42956e-20)
(1.2042 0.0839953 0)
(1.36732 0.354817 4.20292e-20)
(1.22841 0.568688 1.26124e-20)
(0.162059 -0.0143372 -2.40825e-20)
(1.02117 0.133146 3.6217e-20)
(0.96506 -0.00494748 5.64659e-22)
(0.953967 0.00149536 -3.29993e-22)
(-0.00726209 -0.0268104 0)
(0.641495 -0.645397 -2.98368e-20)
(0.614107 0.206824 0)
(0.0758576 -0.129006 0)
(-0.0527388 0.0747976 0)
(0.00462888 -0.11599 -4.10207e-20)
(1.23434 -0.0145448 -1.63946e-20)
(-0.0238351 0.0789002 0)
(-0.0429454 0.0673918 0)
(1.4576 0.110267 -8.83437e-20)
(-0.033496 -0.0679355 4.92073e-20)
(0.115509 0.238232 -9.80515e-20)
(0.39249 0.0183189 0)
(0.167859 -0.272388 8.00297e-20)
(1.0745 -0.239281 0)
(0.993427 -0.282047 0)
(0.00723163 -0.0898922 1.02389e-19)
(1.1469 0.0263665 1.04862e-22)
(1.13016 0.34497 2.43955e-20)
(0.265657 0.0282174 4.92061e-20)
(0.399844 -0.511363 -3.67727e-20)
(1.31646 0.0656286 0)
(1.23017 0.195628 2.40605e-20)
(1.22818 0.210261 -2.95534e-20)
(0.102739 0.0936248 -2.29081e-20)
(-0.077116 -0.00420522 0)
(1.07003 -0.0558418 -1.91992e-20)
(1.1003 -0.221918 -1.43004e-20)
(0.579225 -0.397407 0)
(1.09516 -0.149401 -2.46434e-20)
(-0.119766 0.0957271 0)
(0.621758 0.0506689 0)
(1.46147 0.0371204 4.58788e-20)
(1.01904 0.00681691 3.27228e-22)
(1.08273 0.748647 -1.18751e-20)
(0.22307 -0.37327 1.30006e-19)
(1.07562 -0.0073774 -1.61431e-22)
(1.20716 0.0668228 3.13259e-21)
(-0.063696 0.0840885 3.27817e-20)
(0.792216 0.738063 2.33672e-20)
(1.34184 -0.372764 -1.29312e-20)
(-0.125463 -0.0767446 8.20434e-20)
(1.08588 -0.00437946 0)
(0.217603 -0.0473302 -9.51114e-21)
(0.889618 -0.629654 2.78256e-21)
(0.905933 0.645643 -2.49359e-20)
(0.534419 -0.0368233 -6.20489e-20)
(1.13713 -0.00891217 5.53218e-21)
(1.0765 -0.0881361 5.92103e-21)
(1.13607 0.0698958 -3.1793e-21)
(1.10527 0.121286 1.23291e-21)
(1.13162 -0.130507 0)
(0.917618 0.109999 1.57334e-20)
(0.893054 0.461691 0)
(1.27 0.137412 4.18334e-21)
(1.16793 0.107413 -3.86469e-21)
(0.75811 0.265702 0)
(0.525519 0.110879 1.13314e-19)
(0.898144 0.717054 -8.33141e-22)
(1.08089 0.292016 -1.87354e-20)
(1.0374 -0.00843531 1.05205e-20)
(0.417304 0.49814 0)
(1.28821 -0.473156 0)
(0.691688 -0.107815 6.04056e-21)
(1.27048 0.50562 0)
(-0.0224332 0.0627582 -4.62173e-20)
(1.27681 -0.414988 -9.74615e-21)
(1.17056 0.512324 0)
(0.453172 0.224135 1.64726e-19)
(1.13085 0.317646 -1.27861e-19)
(0.809079 -0.633397 -2.55258e-20)
(1.14641 0.071615 -4.71506e-21)
(0.923504 0.152454 8.68427e-20)
(1.08768 0.169793 4.30965e-20)
(1.07657 0.707854 -1.34899e-21)
(0.898042 -0.432798 6.37497e-20)
(1.4354 0.172141 4.78383e-20)
(1.12692 0.0044904 5.74765e-22)
(0.00125441 -0.0441822 9.08413e-20)
(1.0737 -0.697155 2.59661e-20)
(0.863988 -0.713017 5.24592e-20)
(0.248986 -0.323381 0)
(0.97113 -0.144582 7.00739e-20)
(0.363675 0.314906 -4.27734e-19)
(-0.118787 -0.0402289 2.60618e-20)
(0.251218 0.0524157 2.47174e-20)
(0.663894 -0.0592712 -7.31731e-20)
(1.08453 0.532817 0)
(0.993494 0.223254 7.35949e-20)
(1.08739 0.0286765 2.06288e-21)
(0.914529 0.446465 -8.60995e-20)
(0.77361 -0.717574 -8.36078e-21)
(0.926625 0.0271216 -4.74507e-20)
(0.981706 0.493519 0)
(1.18783 0.198418 -1.17554e-20)
(1.37199 -0.514092 1.31242e-20)
(1.22384 -0.340545 8.82677e-21)
(-0.333592 0.0790192 3.91795e-20)
(0.19396 0.012462 -1.77954e-20)
(0.972413 -0.115502 -5.63534e-20)
(0.355554 0.531734 0)
(0.916222 0.0215542 3.78082e-20)
(1.16276 0.639477 8.76937e-20)
(-0.0584444 -0.106824 1.45999e-19)
(-0.087391 0.0610196 -2.72966e-20)
(-0.0866551 -0.0825458 4.22755e-20)
(1.10059 0.01877 -2.53794e-21)
(1.12015 -0.45818 0)
(1.05891 -0.728995 -4.13681e-20)
(0.700781 0.354512 0)
(0.0395448 -0.115135 -1.0349e-19)
(1.07148 0.00202477 2.80288e-21)
(-0.0332199 -0.0752723 -2.93262e-20)
(1.04701 0.0567152 -1.23384e-20)
(0.106011 0.0353165 5.98575e-20)
(0.853835 0.128374 0)
(1.38537 -0.0381672 5.28009e-20)
(0.0617838 0.0630098 -2.80629e-20)
(-0.339204 0.0438 -4.65119e-20)
(-0.278122 0.0566369 0)
(0.0762434 -0.0114093 0)
(1.34504 -0.0091836 -1.48693e-20)
(0.370397 -0.0113132 1.50984e-19)
(1.25677 -0.722162 -2.21689e-20)
(0.936879 -0.153862 3.33508e-20)
(1.07387 0.252017 -2.54885e-20)
(0.363901 -0.548759 1.37957e-19)
(1.55457 0.276294 -3.84839e-20)
(0.059877 -0.0621171 3.50027e-20)
(0.209231 0.31305 1.90888e-19)
(0.0841942 -0.03426 -1.31629e-19)
(0.938174 -0.488654 -4.2533e-20)
(1.4603 0.388509 3.92735e-20)
(0.560519 -0.668049 4.83486e-20)
(1.1064 -0.0811687 -6.01628e-21)
(0.21702 -0.0319315 5.59269e-20)
(1.18957 0.2924 -5.11462e-20)
(0.665255 0.645679 -3.83161e-20)
(1.32595 -0.620379 0)
(1.42465 0.521377 3.60071e-20)
(1.04683 -0.52472 -1.21771e-20)
(1.39506 0.609039 -1.11731e-19)
(1.17689 0.0481065 0)
(-0.0572455 0.0957783 0)
(1.25715 0.733111 0)
(1.12903 -0.000193425 -3.84059e-21)
(0.736721 -0.296329 -2.02617e-19)
(0.475499 -0.0769849 0)
(-0.0607294 0.104434 -2.7777e-20)
(1.01974 -0.243899 9.43513e-20)
(-0.409273 0.0408577 0)
(0.321354 0.0327738 1.20231e-20)
(1.13821 0.0473461 0)
(1.42207 0.27487 0)
(1.17861 0.0671593 5.04879e-21)
(0.359247 -0.284628 0)
(1.01553 0.152832 3.3324e-20)
(1.31501 0.286316 0)
(-0.123693 0.0708707 -9.96254e-22)
(0.808919 -0.390648 0)
(1.52117 0.336143 -5.83915e-20)
(1.24563 0.370653 -3.90078e-21)
(0.844794 0.651131 -9.24201e-21)
(1.01223 0.158308 -8.12621e-20)
(0.968217 -0.201873 -4.62017e-20)
(1.45884 0.293571 3.43298e-20)
(1.02985 0.103264 0)
(0.56357 -0.0653502 0)
)
;

boundaryField
{
    FrontBack
    {
        type            empty;
    }
    Top
    {
        type            noSlip;
    }
    In
    {
        type            fixedValue;
        value           uniform (1 0 0);
    }
    Bottom
    {
        type            noSlip;
    }
    Out
    {
        type            zeroGradient;
    }
    circle
    {
        type            noSlip;
    }
}


// ************************************************************************* //
