/*--------------------------------*- C++ -*----------------------------------*\
| =========                 |                                                 |
| \\      /  F ield         | OpenFOAM: The Open Source CFD Toolbox           |
|  \\    /   O peration     | Version:  2412                                  |
|   \\  /    A nd           | Website:  www.openfoam.com                      |
|    \\/     M anipulation  |                                                 |
\*---------------------------------------------------------------------------*/
FoamFile
{
    version     2.0;
    format      ascii;
    arch        "LSB;label=32;scalar=64";
    class       volScalarField;
    location    "1809";
    object      p;
}
// * * * * * * * * * * * * * * * * * * * * * * * * * * * * * * * * * * * * * //

dimensions      [0 2 -2 0 0 0 0];

internalField   nonuniform List<scalar> 
808
(
-0.03364475174624793
0.04387292845859801
-0.01105725513697814
0.03731739259193358
-0.2968573240096531
-0.05571744286188774
-0.01564599776844246
-0.02415139289418839
-0.1953244821192624
-0.08318682390254811
-0.0107738515568087
-0.2522152082439785
-0.03071453528651083
-0.01406972168976827
-0.121651910568801
-0.01425006289932428
-0.1379764317807444
-0.01376708690737306
-0.01261766422441751
-0.05502263380966808
-0.00783565713713506
0.1168454347784782
-0.06316510173271037
-0.070948315566255
0.1746983107405881
-0.100447533059507
-0.1511780197035478
-0.02045957822347876
-0.01757110706884936
-0.02555967647520919
-0.02037906279231258
-0.05779758190803221
-0.02271420080159231
-0.01691546846744688
-0.09889853419349309
0.3447007303013925
-0.03989439678303902
-0.01636587457098904
-0.0225409566942939
-0.02647230281486954
-0.08964802286616634
-0.1256253284965182
-0.05265157804352522
-0.02146149240132468
-0.0543257832878372
-0.04223230741913857
-0.01189725580850239
-0.1830374181578427
-0.02663405515556772
-0.202590261146973
-0.01723891173242552
-0.06649172738469256
-0.06156782339576185
-0.01451234241241309
-0.1951325772005828
-0.02787904632064601
-0.01062258972070711
-0.0144065438623747
-0.09945520275924276
-0.03921749300667041
-0.1112583687322808
-0.1248433890881706
-0.01446876796119961
-0.1284202460702167
-0.01763600606078797
-0.05243040651257885
-0.1634726676265792
-0.03538615848043412
-0.01532464083023355
-0.4378525231603204
-0.02617805683537476
-0.2988484309380826
-0.02137133350198495
-0.02119662338471286
-0.06379440554326361
-0.01811913492220786
-0.04196452822081953
-0.3649653021550942
-0.03654027004656516
0.03926798176670086
-0.09198756600930061
-0.01679000207589849
0.05725248785785317
0.04557087262936939
-0.01745732299815382
-0.05163839824964378
-0.538537510622933
-0.2282135080590686
-0.05151192823797877
-0.1133318791016571
-0.0559056269976405
-0.131621263602655
0.0385222994814667
-0.02629437947965494
-0.06267011174276314
-0.1206602333739515
-0.03822404477372668
-0.0519834847649116
-0.1153000342530565
-0.1391549773628314
-0.0531265715543333
-0.04672780279411661
-0.05376862245346332
-0.04423047058341423
-0.05699160091242993
-0.07539791058553817
-0.03965607610528075
-0.0106487302176019
-0.03974136685529123
-0.1227962136624438
-0.04980919075497495
0.0814810847827112
-0.04189286873694041
-0.007597211133777879
-0.02753136352344332
0.1807866411452208
-0.03821981509541721
-0.2662007498712066
-0.02081358876593444
-0.05290661383939804
-0.04214589571622167
-0.04949615302435876
0.01399046889692689
-0.04798210818945357
-0.03647519993258663
-0.2192707604286595
-0.04041453121867571
-0.004253596119910569
-0.07503256716471876
-0.06965632472105819
-0.1512610176462853
-0.02131877260166533
-0.07458614779024378
-0.04390384528773731
-0.02310398415077314
-0.01506677875295214
-0.005982912411803067
-0.007620605817783328
-0.05190134902001936
-0.04910517103506923
-0.2137800206497102
-0.05579425800792926
-0.00818205168332615
-0.02188375270651861
-0.1488199241357719
-0.002127909417819982
-0.07557415115412576
-0.02135012886372552
-8.145553174701285e-05
-0.01024306942797804
-0.03289120961348106
0.09342146464096707
-0.0380989017279976
0.2516285645486541
-0.2597464379729333
-0.1337008719263094
-0.03806276652617743
-0.09078326350639272
-0.009035577573133767
-0.1145910912702463
-0.1686241586519627
-0.2146292595053082
-0.1790967590844109
0.05685044850728486
-0.06378991607598204
-0.02062590991846225
-0.06630110891303681
-0.1722279013710646
-0.02304439548098228
-0.01877737216524175
-0.051278044809364
-0.02053885465067685
-0.007433101796559703
-0.1067042937147361
-0.0236203158110101
-0.04442685800937858
-0.07096077392168595
-0.1600410572363308
-0.03305118335876371
-0.3850674907171738
-0.01791738303593634
-0.2273787706868316
-0.04364859537438203
0.03270985977022747
-0.1059275111253198
-0.01645385439119795
-0.0432905879261507
-0.1047253305564489
-0.01790313578557072
-0.09547448657322494
-0.2034493642765252
-0.07132429110839751
-0.0242075501986447
-0.04739547995998462
-0.04213680741664984
-0.2011638543554841
-0.02244875635819864
-0.0193535524126924
-0.01127418820735816
-0.05725211023309306
-0.04998154144818255
-0.02270992016497472
-0.0205830634471305
-0.2342914802257496
0.1269500057458371
-0.2068386704396847
-0.1908860399976443
-0.01171143299827919
-0.01129438955306877
-0.0665518168414697
-0.01018905829136772
-0.4933922683929493
-0.1272613337785573
-0.01967055881063988
-0.0009003739300142772
-0.02368366043981262
-0.2779029698954021
-0.279163731249949
-0.007557229221745746
-0.01783824862144784
-0.001925367061601385
-0.3501854941448507
-0.02861433965168246
-0.02942418985974388
-0.01268614826593312
-0.01943194333810754
0.04870637544102243
-0.125362895590287
-0.01419261783622439
-0.02094132802645694
-0.04532896677366866
-0.01841394207594367
-0.01643138519219057
-0.02353132727390811
-0.06794530148986187
-0.01107857417823856
-0.01890490026761017
-0.008966762974135466
-0.001361412422165154
-0.02931696375006746
-0.002084328136371891
-0.001975275058925911
-0.005750807221610632
-0.02549500473642739
-0.008113187479066407
0.001636489524585508
-0.004122111898795618
0.001257443770399655
0.002316885846291316
-0.008801137104718125
-0.1296298515927745
-0.002924855594311438
-0.0001455586717704565
-0.04730593535218602
-0.02138400565780644
-0.02374313248023658
-0.01404735684755313
-0.006203204828993896
-0.02116214685818947
-0.03997158750601407
-0.01513128588887669
-0.01263270215124536
-0.01160593001611693
0.006292941527738125
-0.009635454616925049
-0.01317890072145688
-0.01138930686779588
-0.01007625679119934
-0.01014745185445022
-0.01106047008486569
-0.01358160695033157
-0.2922749245695352
0.05902008590730819
-0.01521106753711439
-0.01558549837712131
-0.01240328438572837
-0.01238516489283735
-0.008247090097621817
-0.09938073810265004
0.01214954933046061
-0.01437572194353749
-0.01386297611306993
-0.01061149454963664
-0.05116928860972987
-0.008096762898569403
-0.01388708500794017
-0.009808143875395223
-0.002391585716705032
-0.01126210802149271
-0.01080882563683631
-0.02427863128189211
-0.01562961218816533
-0.01243630105503679
-0.01343192173836859
-0.009851130383625555
-0.01308522821348642
-0.01087458371089181
-0.05973006099719606
-0.01336939915432927
-0.01227145050473284
-0.009166273884657643
-0.01539006611569499
-0.0140705466912607
-0.01569277994440147
-1.368223172828783
-0.1004417140341059
-0.01181599321450077
0.02406109107932892
-0.1619974536191159
-0.09353173950520889
-0.0121002483032614
-0.01423373986264716
-0.2408995954557601
-0.02853680146694224
-0.01807541013434412
-0.01228143111698523
-0.02052910923501147
-0.01079891774834838
-0.03079307037692068
-0.4088063598739193
-0.01201188627659546
-0.01407863457399524
-0.004442686309737868
-0.01073842935641684
-0.009459993965477042
-0.01388546634501833
-0.008197784452100083
-0.02735571460733235
-0.01171839930886695
-0.1701926890916706
0.02011071478879992
-0.00738037005118171
0.003820986667282836
0.01183896033786211
-0.04896393633137348
0.02769945245225999
-0.01288080961179642
-0.1332751119995565
0.282706580286245
-0.008194342393571134
-0.01349252167455389
-0.007964248592657156
-0.0333396717344236
-0.1256462759727239
-0.01323732717355284
-0.01196740516354938
-0.01768124869088679
-0.01351800843097529
-0.04167934185324549
-0.219792775939807
-0.009441014943862626
-0.04357321225343748
-0.03841777151128734
-0.1788584395235782
-0.151944826527922
-0.1555209459111785
-0.2388339093731239
-0.003080350166171516
-0.02070955895718956
-0.01556919513688075
-0.01398606464404233
-0.03372781274331091
-0.02450152470224819
-0.01398329646012302
-0.01493403074228177
-1.0706449621353
-0.002908445332149704
-0.01342516279340158
-0.01800723718732654
-0.01938067438812462
0.005600461318542377
-0.01421718068509304
-0.02560720490816241
-0.1572773322475633
-0.01360000419833256
-0.02093112583620084
-0.01463959357916645
0.001207824032607952
-0.1779731231162485
-0.01263831611604634
-0.1569963957939057
-0.01543437689969524
0.006590953386343266
-0.01394997644435733
-0.02424306683973246
-0.0164345874668567
0.007285136534249733
-0.2665973712885146
-0.02671904150067741
-0.01694645789746363
-0.01672475494862135
-0.0109511005257475
-0.02936996540059431
-0.01373655464251493
-0.02118697838554251
-0.02049907461378654
0.008227108347053848
-0.09791402180200615
-0.02119272102981453
0.009615089916173792
-0.0570167518591972
0.1782344949476872
-0.1063300263966566
-0.3171360429991852
-0.02932803657678752
-0.02592794861586634
0.1508696323569295
0.09512859508927174
-0.003754848690681578
0.05362780697102575
-0.01518765792527168
-0.01331058554133152
0.00270462148417375
0.008136840065980248
-0.06499880063753391
-0.004370049029057493
-0.05601427491309319
-0.0233191803558863
-0.01567693802488377
-0.03650447662411849
-0.03293640369237705
-0.006696699208052161
-0.0145271367425832
-0.03696237933181106
0.03073428886276472
-0.038630656089403
-0.01382572375447699
-0.1195790263013483
-0.03085519189327525
-0.03998229804662239
-0.6695129489546127
0.01338921688094087
-0.0107251370168331
-0.005602055672370355
0.1867153208434825
-0.1010311792550556
-0.03598552614592706
-0.2424208392083469
-0.01519191074948348
-0.01606478273068845
0.07630567278749982
-0.1810334853253572
-0.2298341898763876
-0.1863319755274176
-0.6771436152814427
0.01143304057174809
-0.01793239276287458
-0.01512322645101391
-0.09638661820099606
0.1185691276476819
-0.02199610852026036
-0.2428755505313577
-0.0363034459074739
-0.006984388382415922
0.2787221856236312
-0.01079705274468486
-0.09111928603129792
-0.1528272784229533
-0.004678117907894715
-0.04169864162384072
-0.04606342317101128
-0.1956290375871074
-0.007947220480568166
-0.04001544563505307
-0.003748231615363316
-0.5446528204622114
-0.1944649939450394
-0.1786860757124205
-0.02365084359018488
-0.009041996341055443
-0.06209013009982356
-0.05651676678070608
-0.01607406763521274
-0.06961334893973715
0.004451969423980106
-0.01758191296164295
-0.0951759562766412
-0.2766879046419669
-0.009890799186191158
-0.02479749887628125
-0.02129354775757349
-0.07640788586559437
-0.08909162553312731
-0.08979856755521937
-0.01120443452248482
-0.9089513480950326
0.1619508495058616
-0.08303508779039923
-0.2515700667155977
-0.04136528813150766
-0.009146166163154619
-0.2473675835762747
-0.1952268004781981
-0.03103879103531521
-0.1141493689312485
-0.0177123115680172
0.5626788448733459
-0.02520476538321241
-0.2135998134206073
-0.0250666883623888
-0.003744098099329127
-0.01087739895141019
-1.246774406061003
-0.1818890403988672
-0.2274991955038612
0.005263420556917725
-0.03938065811728767
-0.2348356136538518
-0.0671481504524169
-0.05221474252056922
-0.1458449831372182
-0.1828942564732902
-0.07001028400514846
-1.215935894199538
-0.1601297463367826
-0.5407630470350947
0.07984461962486589
-0.006332225668064173
-0.02100591359760178
-0.04471437788710898
-0.03830518158477265
-0.02765073433657461
-0.130169571762153
0.08132259903286475
-0.004421825212065128
-0.009850287350934779
-0.5628526669279124
-0.8498947659937192
-0.1760759509443182
-0.007529796063820171
-0.1228612296424044
0.0006045396848871058
-0.0006225002824325151
-0.002885325383431733
-0.06179336064447391
-0.2337033247517047
-0.01334214611505776
-0.1104434740236454
-0.1562159968874329
-0.0130980740977595
-0.03446508443175269
0.02841941847991748
-0.05887021635334252
-0.07209664967048389
-0.4930531891954773
-0.231147967760952
-0.0798594102001525
-0.07551286798642494
-0.01929405929332564
-0.1106550567401843
-0.166078603450633
-0.08227089602961118
0.02735085154387812
-0.08724895586069589
-0.05040652424839227
-0.01494775878093278
-0.116036288127022
-0.2811394737241277
-0.05949044074997183
-0.01800835887912203
0.001849866878851912
-0.01023510894415851
-0.01053289388338311
-0.236769920857332
-0.01396741118208306
-0.2171481755542605
-0.01081470721679804
-0.07112244860358301
-0.004003497562384603
-0.02325684880429564
-0.3919941556554943
-0.927352314458958
-0.01123089026194519
-1.041484091808472
-0.6018675684060999
-0.01063481645002013
-0.6590149983651908
-0.1864532483082765
-0.004869532820268356
-0.1236391368705783
-0.0171501734669059
-0.1253113201289665
-0.06502808970810491
-0.07752915431127966
-0.005609916963092094
-0.003650896650559139
-1.343864694171974
-0.01135410204415757
-0.1888034102487431
0.001027707027806544
-1.007865802199734
-1.247178610965825
-0.0785619611995174
0.0167533525522575
0.1645603293415224
-0.004935868932919384
-0.02294688908841692
-0.004370743501975989
-0.239084635334395
0.3655198505756155
-0.04231499129820294
-0.2142276771177461
-0.01528980355377047
-0.6531810681265952
-0.07237376016068424
0.1891604935706764
-0.3031758697252664
-0.05094594793101498
-0.07043980191508033
-0.01579876227992412
-0.0213872557953038
-0.5931108519330136
-0.1536304757472311
-0.09541101153383286
-0.1184376381068637
-0.5512010286360942
-0.04550508789546282
-0.9031715051888641
-0.0008007721290409304
-0.243979665732731
-1.052907031164003
0.1670895320546863
0.2903089819614538
-0.1704298249781026
-0.1895740786193579
-0.2129523107269378
-0.06628063815288283
0.02568357313055693
0.04699697783164994
0.005125198844561901
-0.1526856678667584
0.02602143311693233
-1.365508786577629
-0.08729180205199513
-0.4790593963418385
-0.3342088083267009
-0.2193212792482082
-0.1803158221883228
-0.01698211325472498
-0.01535599636131541
-0.09299354287348757
0.1729007214250528
0.3846598655156126
-0.2114254756711345
-0.1561304887705655
-0.2258587271258493
-0.06373344512495009
-0.1631943817861716
-0.1725643543833768
-0.1277695301515245
-0.1098751965437564
0.4653313823115294
-0.2827016728939602
0.4318011276507145
-0.5898200213068764
0.07279764439114225
-0.1895200247556329
-0.06798382711510259
-0.07744192023950172
-0.8929036601933368
-0.2188189251944745
-0.1925941982313031
-0.3548097143004778
-0.466164998433842
0.569748694122045
-0.2120073667378601
0.002477078381756396
-0.06776722967468747
0.3446261879798185
-0.03509485740077128
-0.1189405499950174
-0.1817056600351118
-0.06473857312393082
-0.01632762489032493
-0.1981303654212858
0.1949465713996572
-0.01257406723596736
-0.09880920819489246
-0.1758293365934639
-0.3173886286858017
-0.3083190418965222
-0.08294766660196935
-0.009655287796324952
-0.07819635693508144
-0.6514948466134096
-0.6731351298465775
-0.3254098001137418
-0.05930790069181831
-0.04966984547547047
-0.02439808307518883
-0.07017765167066826
-0.05514277056298254
-0.3681670673818032
-0.9622058984748847
-0.008628918558324268
-0.08540258628400285
-1.144963486944509
-1.042223948554209
-0.1077907806235136
-0.04149262946513543
-0.06797352406529705
0.3892934703898546
-0.3398920886196642
-0.05159780366843408
-0.6049157977380307
-0.1374271429716384
-0.2487097659727665
-0.2137103784782902
0.473483563490795
-0.6364084611745795
0.07550535063818231
-0.02842803566899561
-0.5693174450556389
-0.05434666798439067
-0.3649842836807013
0.1090016377907969
-0.1936832467202154
-0.06156531320630201
-0.1253180742600807
-0.3586226310906759
-0.08544677167009616
0.5147594550646606
0.08686152224311028
0.4699827085227873
-0.1251031029415239
-0.2066068797594094
-0.5097806233430745
-0.1339130517426131
0.02438437294985487
-0.05562950223277052
0.1003287745121959
-0.3050248967734933
0.2363661878613625
0.005612133578190588
-0.002644652535285577
-0.5084122450499052
-0.1818778617639792
-0.09984795998947345
0.5810659766864218
0.1395130630123731
0.3446147701649765
0.2251424759303491
-0.5661407502504222
-0.2104299142410958
-0.2195416662729665
-0.2298438220680567
-0.06232757500073047
-0.6881889863976171
-0.1908008325996908
0.3047363831305369
-0.2047336030933797
-0.01116977556936771
-0.1631901632295028
-0.01177812359356098
-0.1702950195201411
-0.4466068627516454
-0.07669229417087967
-0.205760837046693
-0.07729579939924279
-0.1101457167373379
-0.132095289818581
-0.07273372450616844
-0.440896373130463
-0.4110608876944619
-0.02432526289786045
-0.07747823614262701
0.3282285709488612
-0.2522116217861579
-0.1720916857120672
0.5246251317395927
-0.1940781409703138
0.02041001825829467
-0.4553163648894156
0.04848816145470192
-0.05968841454693824
-0.1559651665558861
-0.5918708852579601
0.1595996346003773
-0.5756370899770021
-0.5407037633770381
-0.1027547126741401
-0.5124283554935624
-0.0360882709932425
-0.1559052709175033
-0.4140139762294074
-0.01609690619286613
0.2876609472491626
0.4896734629333943
-0.1672422461516008
-0.005821129714450608
-0.08039088465534781
0.5250432342696768
-0.03213612655850661
-0.4458362123561732
-0.03164952067999777
0.4611225825807552
-0.01730354168149502
-0.550446248044568
-0.2397363171750249
0.1775370901526796
-0.3154912769954765
-0.1822959718062925
0.04894903022543812
0.03134527323682
0.05629434541724489
-0.3046182509655291
-0.1588781195753829
0.4127588403381063
)
;

boundaryField
{
    FrontBack
    {
        type            empty;
    }
    Top
    {
        type            zeroGradient;
    }
    In
    {
        type            zeroGradient;
    }
    Bottom
    {
        type            zeroGradient;
    }
    Out
    {
        type            fixedValue;
        value           uniform 0;
    }
    circle
    {
        type            zeroGradient;
    }
}


// ************************************************************************* //
