/*--------------------------------*- C++ -*----------------------------------*\
| =========                 |                                                 |
| \\      /  F ield         | OpenFOAM: The Open Source CFD Toolbox           |
|  \\    /   O peration     | Version:  2412                                  |
|   \\  /    A nd           | Website:  www.openfoam.com                      |
|    \\/     M anipulation  |                                                 |
\*---------------------------------------------------------------------------*/
FoamFile
{
    version     2.0;
    format      ascii;
    arch        "LSB;label=32;scalar=64";
    class       volScalarField;
    location    "671";
    object      yPlus;
}
// * * * * * * * * * * * * * * * * * * * * * * * * * * * * * * * * * * * * * //

dimensions      [0 0 0 0 0 0 0];

internalField   uniform 0;

boundaryField
{
    FrontBack
    {
        type            empty;
    }
    Top
    {
        type            calculated;
        value           nonuniform List<scalar> 
15
(
142.2752112317417
133.5722476349243
138.0699929763939
144.4045681349477
159.7714004547727
131.3687048790294
140.125831830282
135.3587754763082
153.4357384458502
135.7442806814847
136.0946256728799
136.7716655912124
125.2472187655763
132.9037909951062
123.9472350204712
)
;
    }
    In
    {
        type            calculated;
        value           uniform 0;
    }
    Bottom
    {
        type            calculated;
        value           nonuniform List<scalar> 
15
(
155.5651905243311
158.1136458127368
141.0895084090071
142.0650685100542
141.1822999955243
148.4406736102827
142.7036615654834
143.1642194418823
143.423872406034
134.0560217969749
125.7320673335693
141.5527649332319
122.4112726087916
123.4915307450192
124.1388515316434
)
;
    }
    Out
    {
        type            calculated;
        value           uniform 0;
    }
    circle
    {
        type            calculated;
        value           nonuniform List<scalar> 
32
(
56.36882709278281
22.14930803578466
65.32700999165931
23.64097376883218
19.10171768325716
56.16932033876369
56.81824814439689
24.15720704016399
22.3537408811851
65.54668447213989
40.19138198802855
63.0565855110174
50.30025504878598
13.54866104459359
23.73587532647814
18.88963443863956
38.87883778962578
59.58665519798436
61.0020747556356
24.92954867947086
65.71305359139988
63.82782765561867
62.94525929192888
59.92969342078546
64.09239950293285
45.95047269244047
66.35414193563471
32.06852754776142
38.01653769458251
55.75961896955705
21.07204947182263
43.16130456670271
)
;
    }
}


// ************************************************************************* //
