/*--------------------------------*- C++ -*----------------------------------*\
| =========                 |                                                 |
| \\      /  F ield         | OpenFOAM: The Open Source CFD Toolbox           |
|  \\    /   O peration     | Version:  2412                                  |
|   \\  /    A nd           | Website:  www.openfoam.com                      |
|    \\/     M anipulation  |                                                 |
\*---------------------------------------------------------------------------*/
FoamFile
{
    version     2.0;
    format      ascii;
    arch        "LSB;label=32;scalar=64";
    class       volScalarField;
    location    "1931.5";
    object      p;
}
// * * * * * * * * * * * * * * * * * * * * * * * * * * * * * * * * * * * * * //

dimensions      [0 2 -2 0 0 0 0];

internalField   nonuniform List<scalar> 
808
(
-0.0342074987975921
0.04404583561209704
-0.0111193546558667
0.03674600861283309
-0.298539130279108
-0.05557975368138381
-0.01550083183739812
-0.02413961380915176
-0.1965335170538777
-0.08382967844516453
-0.01068014808031544
-0.2536032648567356
-0.03069142374912088
-0.01391377089823963
-0.1210405188869624
-0.01420621046736279
-0.1375524060694942
-0.01372469251807095
-0.01249907760646208
-0.05548328612200661
-0.007520711089541564
0.1171356060078907
-0.06271764084677101
-0.07156535884753878
0.1751061744967474
-0.1003302980444635
-0.1522109464010918
-0.02042674538672799
-0.01751639480870918
-0.02560104674170149
-0.02033808754434321
-0.05830272840086261
-0.02272426812349919
-0.01688817887884757
-0.09955014382784158
0.3444279301116762
-0.03968639663376729
-0.01638976915612102
-0.02267242844917304
-0.0264763050906208
-0.09027412108271511
-0.1265252122257629
-0.05231924366420184
-0.02136788364394114
-0.05426142986861739
-0.04177262938017461
-0.01194972259634985
-0.1842205868132163
-0.02682209088956297
-0.2038497555201882
-0.01710755732130688
-0.06711413008472995
-0.06118654813646546
-0.01441964178305708
-0.1941282741210473
-0.02809269992303521
-0.0105596624659066
-0.01418272816403316
-0.100217029143828
-0.03952811488902905
-0.1106616836060128
-0.1257993303207175
-0.01429866937554784
-0.1292494684621783
-0.0175787110305126
-0.05210234270435778
-0.1648868216344453
-0.03542149412171115
-0.01523273063459932
-0.4398675402512772
-0.02631553557604674
-0.3008618976889557
-0.0214821872136165
-0.02112025491624082
-0.06481200132950722
-0.01799298409939471
-0.04230686454568472
-0.3633885135743628
-0.03639677159759228
0.03993821054299807
-0.09161406847132492
-0.01686614147508544
0.0571903577528552
0.04498744401905862
-0.01730677910386839
-0.05201977019084808
-0.5409787753996236
-0.2270396767249869
-0.05195987258201628
-0.1129414856823319
-0.05642703165557803
-0.1325380705087068
0.03896937076349247
-0.02579618532760741
-0.06227709840574119
-0.1213892504201459
-0.03826377472769038
-0.05194782300244442
-0.1161162742713042
-0.1400601477556377
-0.05298840860614621
-0.04709695848536671
-0.05421347149116119
-0.04457174098906094
-0.05720496457842091
-0.07498916364378572
-0.0398647666525702
-0.010702343684423
-0.04001404773069616
-0.1238006560965823
-0.05011177955303265
0.0818755784862501
-0.04214246570756988
-0.007554095967967957
-0.0275658898859176
0.1805527518052244
-0.03858660140611994
-0.2679335871068777
-0.02075987438398755
-0.05338364644257533
-0.03993818402149555
-0.04921309164971527
0.01368466089211861
-0.04850535899135839
-0.03598702794082798
-0.2181112483252328
-0.04104962759715284
-0.004282720932215387
-0.07572047446516215
-0.06925998507959859
-0.152187325783706
-0.02130100892011763
-0.07510609368531612
-0.0433209670829898
-0.02306336598947576
-0.01540432961114731
-0.005996375386996976
-0.007623600049281914
-0.05215766727238267
-0.04953714071983984
-0.2119622323433474
-0.0563740709129615
-0.00824629818740568
-0.02204620695807515
-0.1479971085078845
-0.00203867373383921
-0.07613123228271988
-0.02197696108759029
-0.000257719853119329
-0.01012616983982424
-0.03308172172240884
0.09389361124486947
-0.03849873990699076
0.2518432488254745
-0.2593645710486044
-0.1330251506353587
-0.03794209546263202
-0.09087307311648467
-0.008987628534508071
-0.1140289547160105
-0.171533009663998
-0.2136069969990382
-0.1808494075625942
0.05651063529928053
-0.06343070434218225
-0.02058280847119974
-0.06667576762173698
-0.1737719583394652
-0.02319771694307328
-0.0188061281061317
-0.05177486870658273
-0.02002475354433403
-0.007114020152075916
-0.1077492797930183
-0.02351265418664966
-0.04498859752819552
-0.07054871356601221
-0.1611175253939698
-0.03316280110545813
-0.3874221873869323
-0.01790270809555404
-0.2263297299438683
-0.04407078325583177
0.03212643736217159
-0.1056000620701061
-0.0160129587333789
-0.04299657964526464
-0.1052531652681511
-0.01789880191116331
-0.09604347059034109
-0.2034234912567457
-0.07177910563679792
-0.0241513263594972
-0.04802323587427019
-0.04252681038435557
-0.2012452450844946
-0.02237333231343981
-0.01930002752988418
-0.01129642690248683
-0.05673241538676491
-0.05049574167529004
-0.02269714870874037
-0.02060328011118029
-0.2367618583341898
0.1271520110184593
-0.2054832629335183
-0.1946254118002071
-0.01171354628485123
-0.01135509509503872
-0.06677932776221059
-0.01000090473433831
-0.4972060072524931
-0.1276039859133128
-0.01958194561070259
-0.001176753621751601
-0.02378201478013945
-0.279955449772154
-0.27782417304878
-0.007529449203603353
-0.01793681553648377
-0.002115406177684018
-0.3487164827253033
-0.02857092686156416
-0.02939234201902711
-0.01266644756998369
-0.01947660063548235
0.04915670350928109
-0.1238284010191479
-0.01407598985458004
-0.0208994903880269
-0.04485678871566412
-0.01837670579245273
-0.01638627762722224
-0.0234941089713573
-0.06773808988932725
-0.01121859256110682
-0.01892361185154661
-0.00891545300211077
-0.001349477257259785
-0.02934483519383153
-0.001999697458829692
-0.002028773332786287
-0.00583259738819352
-0.02550742732323421
-0.008115275453870283
0.001653519122573992
-0.004101191051753121
0.001204599338794834
0.002326016791662955
-0.008688814737871267
-0.1312381535764466
-0.002944470088001961
-0.0001956489034527397
-0.04742671943607602
-0.02137560775396053
-0.0239550393942268
-0.01409404439596816
-0.006175097216662193
-0.02112203912074968
-0.03942857841317352
-0.01500003161584868
-0.01262263359481982
-0.01173408565591249
0.005980653819590933
-0.009697408158141841
-0.01312753760251915
-0.01133723856545798
-0.01014110016715374
-0.01008230884779712
-0.01094859049344814
-0.013667233191771
-0.295325589256685
0.05944861114395263
-0.01513388546289953
-0.01600460880579803
-0.0124804671831741
-0.01249162321077423
-0.008287178104042166
-0.09961701507885805
0.01123626874090801
-0.01436211371837095
-0.01405420608175552
-0.01067283834610934
-0.05170656859425393
-0.008189806180555908
-0.01395925202475491
-0.009563426060096428
-0.002375526219436395
-0.01090371773923923
-0.010554104111163
-0.02437845845686953
-0.01580263481882401
-0.01239542551304625
-0.01337880598444791
-0.00982077015586008
-0.01323804699868541
-0.01089600007983816
-0.05923784835029916
-0.01322367963861528
-0.01221236221956144
-0.009078351833287736
-0.01533340229991134
-0.01412934043102603
-0.01571863287639949
-1.371848594882324
-0.1000012932244862
-0.0118786834664267
0.02341716295910918
-0.1631144167506626
-0.0939287211254082
-0.01191223770987801
-0.01424460593669163
-0.2457745080350018
-0.02913628959421066
-0.0187231080737202
-0.0120639379069803
-0.02043211116023957
-0.01099465507294868
-0.03076642060692122
-0.4106456229027186
-0.01199511470126181
-0.01407931890207734
-0.004507999690990353
-0.01059202528216474
-0.009265423818166803
-0.01395583696673633
-0.008756023005723286
-0.02720154659239166
-0.01161198359451611
-0.1674481364955848
0.0196586027170158
-0.007456360837456369
0.003676261401700733
0.01199658856641941
-0.04867705620508644
0.02815349374870494
-0.01279182637213023
-0.1341547582404282
0.2824472873280984
-0.008068173935822679
-0.0133795600435668
-0.008037019254165978
-0.03347954284937966
-0.124952470166096
-0.01337078976829841
-0.0120330050799483
-0.01766771313036734
-0.01352089507652415
-0.04159992460105733
-0.2184760306584411
-0.009856978118404969
-0.0430846461563462
-0.03868722381477541
-0.1762992214217132
-0.1542824415080384
-0.1557078166795726
-0.2454879671149312
-0.003690100120521288
-0.02080516028085046
-0.01551354995916879
-0.01387606013960989
-0.03359558712591068
-0.02446710908806706
-0.01405083807423254
-0.01496933949349548
-1.074037854097385
-0.002987383404853477
-0.01350552104984967
-0.01806858215240667
-0.0183536826108499
0.005765475718607194
-0.0140616023822439
-0.02619316223281192
-0.1606988978062419
-0.01359645793418026
-0.02105496770450102
-0.01455639433942948
0.001747064608976314
-0.1780275996985395
-0.01277637389550085
-0.1550607690460266
-0.01549489518615259
0.007930034366071093
-0.01401656314117528
-0.0240691210290814
-0.01639033829595724
0.00703901674496538
-0.2689937486548483
-0.02654207870774686
-0.01687537659863175
-0.01581639465194093
-0.01070095755631548
-0.0296071249435404
-0.01382101631636368
-0.02111475087255794
-0.02062349251716655
0.008048581812933489
-0.09875677833177719
-0.02135517612603371
0.009559537279296735
-0.05556335919192418
0.1735603967254034
-0.105559265310825
-0.3187029445093291
-0.02933807995879155
-0.02588126114748913
0.1502373853744809
0.09617393680576194
-0.003640096844003172
0.05325788354927195
-0.01528232938740631
-0.01354442008565013
0.002630729992156032
0.009070463331659633
-0.06554236081731038
-0.004388085775734371
-0.05637974559546052
-0.02322053046121551
-0.01567660052387478
-0.03650431585597073
-0.03293501535773979
-0.006688674454534901
-0.01455264729370589
-0.03758294825581647
0.03164919766852568
-0.03866323062429745
-0.0137315091328926
-0.118853202752378
-0.03100145350772739
-0.03972605908669548
-0.671968701375472
0.01354274318062541
-0.01085514195271143
-0.00548307660978969
0.184077410339738
-0.09818834610718087
-0.03585384733427516
-0.2437604381377071
-0.01534498610154426
-0.01614948981978659
0.07245652426549916
-0.1823804115265857
-0.2280913998260861
-0.1887191352563834
-0.6798090350447423
0.01171575017742018
-0.01791652314314496
-0.01516322103809955
-0.09372956293077872
0.1182730275249723
-0.02202086164020078
-0.2466294592274048
-0.03608788557212698
-0.006866497030547612
0.2778041246847262
-0.01086565372201477
-0.09187669698058176
-0.1518720797934787
-0.004940451727535254
-0.04149805668808501
-0.04539829953622451
-0.1974279648802696
-0.008126817613035473
-0.04060305564725229
-0.003592458488992226
-0.5467137390988217
-0.1962175468846999
-0.177900128472336
-0.02352945302881311
-0.008653920452268128
-0.06163785791774364
-0.05695168770913319
-0.01621798176122487
-0.06918080789058068
0.003921576648822771
-0.01770520232341873
-0.09552790598948148
-0.2745662855347296
-0.009722980394004302
-0.02497780011340014
-0.02142146070956352
-0.07595586636668421
-0.08966004950163664
-0.08937482632589212
-0.01115566993005408
-0.913204569055061
0.1614734907385853
-0.08284397565723753
-0.2532059000466994
-0.04164495429888481
-0.009322945999666547
-0.2467293775685432
-0.1923186896567536
-0.03165554573528435
-0.115821332025471
-0.01761494397661522
0.5623975906148985
-0.0249804703187462
-0.216260889581133
-0.02529990546144062
-0.003822507474628711
-0.01096826787795455
-1.249890702368052
-0.1830893496627262
-0.229296475503576
0.005306586597495958
-0.03881101116695982
-0.2375710154822505
-0.0667958205639954
-0.05198721251565912
-0.1447630525072371
-0.1857986015675781
-0.06954448417411085
-1.219956429537172
-0.1578402422996923
-0.5363085247149925
0.07953423487427785
-0.006558795286579214
-0.02119177599688385
-0.04425754167234206
-0.03898287319766282
-0.02783193596141079
-0.1311784940634076
0.08083583126177574
-0.004444889209613214
-0.009791493892875555
-0.5665329405905962
-0.8535154922766535
-0.1787179877311102
-0.00752780290409599
-0.1247945372068205
0.0007160680024725438
-0.0007816738156722319
-0.002815058687478494
-0.06149991447681141
-0.2352194279683381
-0.01337326058944256
-0.1125144329158111
-0.1556174599799426
-0.01311989254525086
-0.03478024663733133
0.02681767905478033
-0.05856999476280609
-0.07158722483168982
-0.4955474604633907
-0.2377939027300813
-0.08028098449595045
-0.07481321217963964
-0.01939310055445657
-0.1120723031351065
-0.1643804329731427
-0.08142652803417538
0.02736562610784385
-0.08662385377100616
-0.0498920696660426
-0.01495002180860948
-0.11544069892606
-0.2792333376897988
-0.05887756475592085
-0.01809915984716242
0.002074871768995302
-0.01021283796902915
-0.01063352322726765
-0.2335878959430584
-0.01405080418589508
-0.2187114017510802
-0.01078565750439642
-0.06898234471184862
-0.003875273337947182
-0.02323858549190536
-0.3888692213115137
-0.9225913297553151
-0.01124267763087185
-1.04443339876153
-0.6048137322469489
-0.0106745678046993
-0.6568071396263647
-0.1841391684512615
-0.004902029225157509
-0.1252238580579745
-0.01721024110902942
-0.1243938130599014
-0.06569991320433846
-0.07674443581637259
-0.005558600711333914
-0.003618237532457482
-1.340603821413276
-0.0112662679807457
-0.1902835891739418
0.0009442680153384105
-1.010553346094417
-1.242775966090317
-0.07945262143850945
0.01760761214588095
0.1644335393203185
-0.004963479311609804
-0.0229530697234392
-0.00436415581475641
-0.2416987571582387
0.3656280274138256
-0.04205010457329075
-0.213282528225971
-0.01525651056431461
-0.6554678640800439
-0.07315690910440155
0.1898135088299217
-0.2996756359863171
-0.0507637774094491
-0.07011746480474888
-0.01580728789761911
-0.02143385019658766
-0.5889879515938626
-0.1519649382585245
-0.09413538963941664
-0.1202775516110211
-0.5532503075074992
-0.04527954527275065
-0.905730106404089
-0.0008866408397431985
-0.242506271021426
-1.05020290177508
0.168350997552318
0.2910580122643803
-0.1716355117568074
-0.190904470094293
-0.2109160287474028
-0.06680035115704296
0.0255160300550214
0.04834550866341207
0.005236617618216186
-0.1544033944460212
0.02591080361400667
-1.361717891703356
-0.08683797844788523
-0.4772474187673774
-0.3326716689445702
-0.2164861216621987
-0.1791795151385502
-0.01697473848147456
-0.01536596197962466
-0.09486506562344128
0.1718422216969248
0.3849723505064878
-0.2155949303965642
-0.1543212436634395
-0.2303438540772126
-0.06349714230531645
-0.1615535695774254
-0.1708218808607821
-0.1272543365992863
-0.1112734674286413
0.4661000396351901
-0.2799251436181821
0.4309649399241388
-0.5924609107612484
0.07205099733192441
-0.1925561054912587
-0.06759435806553502
-0.07652078349824547
-0.8888272582301376
-0.2206156973361139
-0.1916898998043136
-0.352866343597413
-0.4639755757705432
0.5699132968520378
-0.2096459551588237
0.001788155827103614
-0.06868670185160532
0.343914517510483
-0.03582001191219897
-0.1195678600726437
-0.1808468215532548
-0.06467875088271671
-0.01634906449565447
-0.1967054757783566
0.193658315862262
-0.01257266576458968
-0.09823985352241334
-0.1740897674431862
-0.3156411954134061
-0.3098688388124374
-0.08030525797310242
-0.009742754726692664
-0.07673300002206063
-0.6537008336225042
-0.6709588670031967
-0.3280830710335951
-0.05898431001021195
-0.05034219374766515
-0.02457559811148047
-0.06958674076429217
-0.05593210085968338
-0.3659981417909304
-0.959580756519347
-0.008730759340711559
-0.08484761961368657
-1.141810356130407
-1.038664585275181
-0.1064421677501518
-0.04073232161632278
-0.06856253623189248
0.3899486037731124
-0.3414778733304589
-0.05214672474960822
-0.6026612377799716
-0.1355044310188885
-0.2501184703298734
-0.212433037079218
0.4737313411281002
-0.6337546685422659
0.07436230999222626
-0.02864493410793227
-0.56627457438614
-0.05363988725915761
-0.3632801508175099
0.1080361530004142
-0.1927867254359089
-0.06120207058400608
-0.1271154920529967
-0.3603714047942875
-0.0868546856879573
0.5142433308629413
0.08632871351670261
0.4704329763414848
-0.1249471525834748
-0.2049009387858444
-0.5126986049458234
-0.1326901875706444
0.02501142234493388
-0.05516019659815344
0.1012032739093059
-0.3068462553656717
0.2362474829158955
0.006575172667658959
-0.002689700509564589
-0.5103630850481835
-0.1830812798345033
-0.09904038037611655
0.5810071297950075
0.1391048687197368
0.3455207647252728
0.2252383563033289
-0.5640995791120235
-0.2136881815120279
-0.2189681249764636
-0.2328188512060453
-0.06188181098539481
-0.6905762203792568
-0.1922944895268073
0.3052544098844162
-0.2080212192852495
-0.01111057792281268
-0.1657584930449065
-0.01122814562067591
-0.168104904748848
-0.4437374253096161
-0.07688520185007459
-0.2035452910469704
-0.07633579232726423
-0.109195591000803
-0.1342223515682997
-0.07305044147409319
-0.443933802596171
-0.4128543990413193
-0.02528163375551435
-0.07668149753304232
0.3272247823210159
-0.2508468953731848
-0.174567947012263
0.5250779776050911
-0.1965930126826651
0.01939194553924563
-0.4534763207414072
0.0470918052982578
-0.06040144748271307
-0.1575510338087908
-0.5891912862594709
0.160616816206153
-0.577736246747392
-0.5385403971097623
-0.1040347165738072
-0.5104368626133676
-0.03636004426459216
-0.1539205591311315
-0.4122616661718621
-0.01615228116275747
0.2870487794216515
0.4894935178896718
-0.1655110405726116
-0.006583044556524333
-0.07754572073596348
0.5250782379086013
-0.03241155496315819
-0.4438364812608162
-0.0318452276834
0.4606445561734443
-0.01669106852325226
-0.5482320509259603
-0.2398133862529583
0.1767948348951204
-0.3139614644693145
-0.1811838253222582
0.05003431490156725
0.0318981622878008
0.05562026111196453
-0.3030672915131675
-0.1582160375278302
0.4126876695154904
)
;

boundaryField
{
    FrontBack
    {
        type            empty;
    }
    Top
    {
        type            zeroGradient;
    }
    In
    {
        type            zeroGradient;
    }
    Bottom
    {
        type            zeroGradient;
    }
    Out
    {
        type            fixedValue;
        value           uniform 0;
    }
    circle
    {
        type            zeroGradient;
    }
}


// ************************************************************************* //
