/*--------------------------------*- C++ -*----------------------------------*\
| =========                 |                                                 |
| \\      /  F ield         | OpenFOAM: The Open Source CFD Toolbox           |
|  \\    /   O peration     | Version:  2412                                  |
|   \\  /    A nd           | Website:  www.openfoam.com                      |
|    \\/     M anipulation  |                                                 |
\*---------------------------------------------------------------------------*/
FoamFile
{
    version     2.0;
    format      ascii;
    arch        "LSB;label=32;scalar=64";
    class       volScalarField;
    location    "20";
    object      p;
}
// * * * * * * * * * * * * * * * * * * * * * * * * * * * * * * * * * * * * * //

dimensions      [0 2 -2 0 0 0 0];

internalField   nonuniform List<scalar> 
808
(
0.112064
0.0123554
0.0517147
0.11206
-0.224454
0.0112972
-0.000524531
0.0225291
-0.128414
-0.0347387
0.0401169
-0.143038
0.0197617
0.00735279
-0.206675
0.0174907
-0.207138
0.0116937
0.041528
0.00106093
0.0443748
0.391359
0.0779158
-0.0117784
0.469532
-0.159447
-0.0634029
0.00134239
0.00891896
0.0165276
0.00676673
0.0111865
0.0226628
0.00442327
-0.0938642
0.633346
0.0112738
0.0234041
0.01556
0.0184705
-0.0630175
-0.0652376
0.0371213
0.0234421
-0.192793
0.0953983
0.0191743
0.00825918
0.0118923
-0.169285
0.00383312
0.00830976
0.0478918
0.00298822
-0.0663912
0.00909306
0.00814918
0.0412619
-0.0294693
0.00274194
-0.290053
-0.00135033
0.0308185
-0.191873
0.0283028
0.0480303
-0.278303
0.0237694
0.0367752
-0.273441
0.0198913
-0.30497
0.0163984
0.0156384
0.184955
0.0167877
-0.0125401
-0.0440474
0.00696028
0.329063
-0.114631
0.0156966
0.0337108
0.272642
0.0224714
-0.0322718
-0.347448
-0.0849537
0.0216105
-0.15984
0.0317897
-0.108716
0.266453
0.167614
0.0444115
-0.281512
0.0218277
-0.129446
-0.116983
-0.249894
0.0103376
-0.00468696
0.0330108
-0.0256848
-0.110105
0.063294
-0.224481
0.000972259
0.00625022
0.026972
-0.0708185
0.346911
0.0139916
0.0113894
0.0227482
0.458436
0.00786732
-0.260584
0.0177238
0.0499975
-0.294611
0.0360665
0.00842757
0.0507232
0.121697
-0.0308059
0.100637
0.0153315
0.0231043
0.0720142
-0.305873
0.0211876
-0.0581582
0.138721
0.0199924
0.0060654
0.0482761
-0.00191355
0.0155853
0.0025183
-0.24559
0.0404753
0.0611568
0.0175898
-0.0117801
0.019854
0.0895669
0.152708
-0.184667
0.000167611
0.0155076
0.358369
0.0236548
0.547495
-0.251952
-0.079391
0.013035
-0.197882
0.0495641
-0.101283
-0.290446
-0.249671
-0.298992
0.0130989
0.0641351
0.0215908
0.0154562
-0.308615
0.0101617
0.0302798
0.0328396
0.170445
0.0227869
0.12104
0.0147156
0.0638379
0.0758637
-0.158254
0.0204979
-0.329904
0.0290866
-0.114161
0.0108898
0.262595
-0.208599
0.123696
0.0206316
-0.163296
0.0281188
-0.114037
-0.241092
-0.0788567
0.0179907
0.0755259
0.0112938
-0.225806
0.0176615
0.025366
0.0060876
0.0896637
0.0592051
0.0228324
0.0234724
-0.30222
0.38624
-0.231709
-0.286179
0.00664311
0.0475657
0.0152398
0.0074599
-0.376919
-0.309828
0.0146213
0.0199283
0.0154988
-0.3126
-0.0136322
0.0115504
0.025305
0.0212059
-0.0627026
0.0233966
0.0227862
0.000391851
0.0246928
0.132366
-0.316755
0.0163083
0.00793828
0.125496
0.0102095
0.0115972
0.00511544
-0.0995412
0.033258
0.01074
0.0022159
0.00726521
0.0167788
0.00453706
0.00353576
0.0052979
0.00582519
0.000452326
-0.00143492
0.0044155
0.00401362
-0.000572972
0.0293034
-0.298357
-0.00113299
-0.000559777
-0.125877
0.00292084
0.00486819
0.0241493
0.000241053
0.0162338
0.138769
0.00992015
0.0109782
0.012548
0.028389
0.033815
0.0094339
0.00216834
0.020862
0.00607266
0.0649751
0.0309718
-0.372825
0.290042
0.0168342
-0.099318
0.0159374
0.0174524
0.0127346
-0.24403
0.276914
0.0133689
0.0479374
0.0110052
0.0793675
-0.232316
0.0137992
0.0491652
0.0205736
0.0239985
0.0591183
0.0190932
0.0264592
0.0143936
0.0220029
0.0225871
0.0205766
0.0524062
0.0663308
0.012735
0.0231959
0.00744007
0.0135418
0.0208968
0.0168232
-0.48732
-0.0871954
0.0674029
-0.000459832
-0.182639
-0.230795
0.0128911
0.0160333
-0.289
0.123232
0.154187
0.0157117
0.0139829
0.0192784
-0.000425722
-0.212072
0.0282942
-0.00196463
0.0257072
0.0300617
0.0205695
0.0246928
0.0324221
-0.0152275
0.0262578
-0.263097
0.0669724
0.0293709
0.0194181
0.00375793
0.00975965
0.244165
0.0217734
-0.168592
0.554242
0.0837427
0.00167465
0.0246181
-0.093105
-0.0338146
0.0249325
0.0262402
-0.0153131
0.0211482
-0.0610831
-0.210498
0.0393227
0.115074
-0.0434634
-0.252548
-0.292933
-0.301482
-0.293664
0.055013
0.0198476
0.00768372
-0.0176511
-0.0500949
0.0022917
0.018937
0.00135137
-0.481044
0.0723013
0.0157568
0.0310085
-0.244329
0.0682129
0.00606969
0.107238
-0.329338
0.0539364
-0.0222063
0.0446576
0.0867034
-0.269667
0.0178235
-0.264368
-0.00439627
0.093166
0.0342114
0.00783797
0.0249944
-0.179765
-0.320198
-0.00224509
-0.000320554
-0.155216
0.0188618
-0.00480233
0.0148017
-0.0211572
-0.00762115
-0.304971
0.0317322
0.0109331
0.0162165
-0.316
-0.209754
0.0773933
-0.0045853
-0.107358
-0.0546273
0.42711
-0.236366
0.00919195
-0.114337
0.0105521
0.0307812
0.0209948
0.069243
-0.0128014
0.0393692
-0.0632828
-0.0177915
-0.00659915
-0.00901861
-0.0139535
-0.0129692
0.0245139
0.109507
0.00869053
0.0162968
0.00544935
0.0367718
-0.0433759
0.024331
-0.360511
-0.0307258
0.0301348
0.0195377
-0.178868
-0.290231
-0.0268532
-0.0813198
-0.015049
0.0210307
-0.243832
-0.235753
0.257749
-0.295277
-0.432431
-0.203299
-0.0982208
-0.0426178
-0.299831
0.357108
-0.0848595
-0.278623
0.00295084
0.0758686
0.574063
0.00870357
0.00569625
0.0652074
-0.0904792
-0.0161693
-0.323927
-0.225282
0.0123704
0.0572128
0.00775326
-0.250169
-0.294311
-0.177943
0.0128782
0.040267
0.0995981
-0.0219155
-0.0792988
0.0856771
-0.0247216
0.0144449
-0.186404
-0.257521
-0.000962305
-0.0576109
0.0119493
0.0157915
0.0734113
-0.0418906
0.0251233
-0.438269
0.456522
-0.264855
-0.266119
-0.0305688
0.0128239
-0.258829
-0.24696
0.115079
-0.311528
-0.129872
0.871627
0.0117135
-0.33069
0.00125162
-0.0542493
0.00064587
-0.438695
-0.252726
-0.292442
0.00424316
-0.188084
-0.335548
-0.00721258
-0.0231136
0.124829
-0.29672
0.0386399
-0.476304
-0.278387
-0.338042
-0.0235253
0.0219025
0.00546613
0.113484
0.124183
-0.0284723
-0.266323
0.308276
-0.0016301
0.00498108
-0.412029
-0.472487
-0.313076
0.00697461
-0.324752
0.00649204
0.0434843
0.00634585
-0.206474
-0.221723
0.0157747
-0.283889
-0.23258
0.00865775
-0.00744338
-0.26074
-0.00696946
0.0450256
-0.358689
-0.302093
-0.103353
0.115655
0.0199145
-0.306392
-0.250317
-0.317279
-0.0917497
0.053697
0.111038
0.00519313
-0.332137
-0.25259
0.116376
0.0182439
-0.101174
0.0358908
0.0331251
-0.286637
0.0358448
-0.258646
0.0416256
-0.250299
0.0616273
-0.00467659
-0.317094
-0.404678
-0.000600252
-0.452798
-0.435711
0.0392946
-0.0343349
-0.24685
-0.000476574
-0.274714
0.0235578
0.0999658
0.0576817
-0.254702
0.00204452
0.0877593
-0.402761
0.02092
-0.276859
0.015676
-0.303813
-0.457565
0.0982959
0.294396
0.451417
0.0144199
0.000921678
-0.00219601
-0.316638
0.659093
0.0172252
-0.168291
0.0164588
-0.0653487
0.0776195
0.505044
-0.322708
-0.0466461
-0.0357777
0.0273152
0.0138571
-0.401066
-0.256885
-0.28022
-0.25223
-0.265258
-0.00194749
-0.345729
-0.000777752
-0.222799
-0.267353
0.538117
0.611217
-0.242379
0.114173
-0.25199
-0.0272294
0.00278525
0.434609
-0.0213172
-0.297235
0.0516342
-0.457146
-0.0126809
-0.160667
0.0105658
-0.270151
-0.224448
-0.00322785
0.00195308
-0.300318
0.449021
0.692435
-0.311268
-0.255879
-0.306137
-0.0531807
-0.261627
-0.246587
-0.13922
-0.298894
0.775731
-0.2955
0.748124
-0.392846
0.331726
-0.293659
0.00958422
0.19819
-0.448794
0.222585
-0.224415
-0.266249
-0.293992
0.886575
-0.255948
0.210301
0.148231
0.648282
0.122521
-0.256525
-0.228507
-0.171213
0.013346
0.117848
0.521864
0.0116728
-0.00838186
-0.248436
0.151778
-0.117783
-0.293592
0.0330475
-0.220529
-0.153874
-0.116326
-0.345133
0.00736352
0.101712
-0.00208232
0.0904707
0.107729
-0.286254
-0.311469
0.00386619
0.0248057
-0.415706
-0.461143
0.206917
0.213981
0.086908
0.691004
-0.0764528
-0.263754
-0.338173
-0.255984
-0.0568115
0.110712
0.779898
-0.400905
0.376894
-0.00786933
-0.375304
0.171949
-0.0396565
0.387235
-0.121135
0.0203738
-0.307583
-0.0757417
0.194935
0.820429
0.338737
0.779367
-0.314114
-0.251973
-0.395449
0.194552
0.286886
0.0723113
0.405436
0.135837
0.508246
0.301072
0.00967154
-0.18188
0.0245357
-0.252235
0.896365
0.418345
0.673523
0.525118
-0.225659
-0.309745
-0.249853
-0.27466
0.0573556
-0.392467
0.103438
0.616459
-0.333326
0.00799091
-0.277001
0.203334
-0.284838
-0.319506
-0.159485
-0.236984
-0.260932
-0.28041
-0.316451
-0.124899
-0.394354
-0.129134
-0.262432
0.167718
0.658052
-0.178243
-0.299051
0.845783
-0.297711
0.2887
-0.195938
0.388335
0.0859324
-0.316621
-0.347535
0.470003
-0.267683
-0.278459
0.190458
-0.234531
-0.0200556
-0.25378
-0.0820386
0.0360973
0.575833
0.790953
-0.25183
0.228165
-0.257825
0.835359
-0.0101308
-0.268956
-0.0216989
0.770967
0.225431
-0.276398
-0.244787
0.458489
-0.174085
0.0637939
0.378262
0.271688
0.299351
-0.210657
-0.254689
0.700323
)
;

boundaryField
{
    FrontBack
    {
        type            empty;
    }
    Top
    {
        type            zeroGradient;
    }
    In
    {
        type            zeroGradient;
    }
    Bottom
    {
        type            zeroGradient;
    }
    Out
    {
        type            fixedValue;
        value           uniform 0;
    }
    circle
    {
        type            zeroGradient;
    }
}


// ************************************************************************* //
