/*--------------------------------*- C++ -*----------------------------------*\
| =========                 |                                                 |
| \\      /  F ield         | OpenFOAM: The Open Source CFD Toolbox           |
|  \\    /   O peration     | Version:  2412                                  |
|   \\  /    A nd           | Website:  www.openfoam.com                      |
|    \\/     M anipulation  |                                                 |
\*---------------------------------------------------------------------------*/
FoamFile
{
    version     2.0;
    format      ascii;
    arch        "LSB;label=32;scalar=64";
    class       surfaceScalarField;
    location    "20";
    object      phi;
}
// * * * * * * * * * * * * * * * * * * * * * * * * * * * * * * * * * * * * * //

dimensions      [0 3 -1 0 0 0 0];

oriented        oriented;

internalField   nonuniform List<scalar> 
1171
(
-0.945465
0.945465
0.776188
-1.08756
0.311372
-0.222741
-0.742728
0.965469
0.0545349
-0.067289
-0.278532
0.345821
-0.776188
0.0884732
0.687715
0.930766
-0.213383
-0.717384
0.83243
-1.05548
0.223045
-0.357783
-0.0383419
0.396125
-0.00438239
0.606495
-0.602113
-0.567201
0.948619
-0.381418
-0.425072
1.01288
-0.180448
0.219174
0.100359
-0.319533
0.974516
0.0383623
0.255317
-0.0361429
1.01045
-0.0359367
0.676653
-0.899394
-0.785944
0.610301
0.175644
0.239546
-0.806747
0.556677
-0.913374
0.356697
-1.08085
0.672498
0.408354
-0.644896
0.640513
0.029832
-0.248541
0.218709
0.0440344
-0.636093
0.592059
0.467861
-0.506203
-0.834301
0.876813
-0.0425121
0.98754
0.022912
0.904287
-1.05886
0.154571
1.01037
-0.0228336
-0.6986
-0.0873444
1.26096
-0.849594
-0.411367
0.176073
-0.0794265
-0.411494
0.490921
-0.273437
0.187283
0.0861545
-0.606299
-0.481261
0.972117
-0.0678294
-0.0300285
0.888865
-0.858836
0.510559
0.750402
0.527069
0.0212838
0.446577
-0.792651
-0.105548
0.898199
0.57982
0.240128
-0.819949
0.0641774
0.585713
-0.64989
-0.510482
-0.570369
-0.380903
-0.677955
0.0271199
0.247283
-0.274403
-0.957476
-0.0340947
0.99157
0.375719
0.0204057
0.836363
0.0944032
-0.603299
-0.0415969
0.0340258
-0.826677
0.104822
0.929738
-1.03456
-0.405215
0.0311888
0.374026
-0.715337
-0.242139
-0.732112
0.836934
0.724065
0.224554
-0.580829
0.998841
-0.819379
-0.179462
-0.159511
0.0476431
0.111868
-0.460399
-0.0458044
-0.296564
1.02063
-0.00394614
0.43288
-0.428934
-0.511799
1.09162
0.716157
-0.821705
0.396548
-0.0730287
-0.32352
0.760227
-0.760227
-0.893217
0.0407421
-0.319274
-0.698572
0.668544
-0.034078
-0.1458
0.179878
0.891648
-0.00278362
1.04856
-0.808434
0.225946
-0.322529
0.0965837
0.962413
-0.12605
-0.673179
-0.0524433
0.725622
0.1485
-0.229699
0.0811988
0.79629
-1.00967
-0.438835
0.308994
0.12984
0.683306
-0.639272
0.864036
-0.391876
-0.472161
0.483134
-0.693954
0.0351237
0.65883
0.142465
0.663976
0.0457318
-0.709708
0.136918
-0.0961757
-0.509083
0.103868
0.0363541
-0.904682
0.868327
-0.535735
-0.759217
0.0606169
0.501308
-0.0547306
0.276129
-0.833572
0.557443
0.424658
0.575342
0.598952
-0.564926
-0.392602
-0.0122645
0.404867
0.535764
0.224462
-0.670677
0.734854
0.0898137
0.884764
0.00608745
-0.679266
-0.76466
0.801014
0.611533
0.105496
0.351906
-0.457403
-0.154179
0.550932
0.0347806
0.872799
-0.813598
-0.0592011
0.660919
0.337922
-0.433279
0.69265
-0.587154
0.409003
0.147674
-0.054418
-0.733468
-0.213339
0.946808
-0.122522
-0.637704
-0.613356
0.361897
0.25146
0.661403
-0.655315
0.311743
1.03083
0.0177274
-0.76466
-0.185691
0.0261802
0.716157
0.787085
-0.787085
0.844065
-0.830054
-0.014011
-0.453746
0.878404
-0.192743
-0.31634
0.764238
-0.671115
-0.0931233
-0.915997
0.182529
0.110124
-0.713423
0.821705
-0.975885
-0.201588
0.192934
0.00865399
0.11123
-1.00169
0.89046
0.546173
-0.0191049
-0.288546
0.5944
-0.305854
-0.655722
0.766952
-0.157976
0.656711
-0.887124
0.230413
1.13549
-0.708618
-0.426872
0.732667
-0.0689655
0.000728645
-0.00146663
0.00073798
-0.800814
-0.866987
0.124259
-0.698572
0.57528
-0.544091
0.207698
0.638847
-0.846545
0.778671
0.166794
0.490453
0.509547
-0.0629033
-0.712336
0.775239
0.934002
-0.0612023
-0.732667
0.801014
0.181856
-0.430397
-0.0276522
0.0146433
0.0130088
0.673006
-0.428997
-0.244009
0.687715
-0.0578311
-0.210276
0.56689
0.106116
-0.0190106
0.00102572
0.0179849
0.00586122
-0.00513258
0.142333
-0.215362
-0.945061
0.0291444
-0.144046
-0.0592553
0.132734
0.795055
0.74177
-0.166428
0.595142
-0.387443
-0.163163
0.389109
0.637995
0.04972
0.229707
-1.05976
-0.975885
0.320989
0.668544
-0.163144
0.0173443
-0.8242
1.02819
-0.20399
0.480113
-0.106087
0.799362
0.306046
0.263556
-0.00823984
-0.680822
0.680822
0.226396
0.671804
-0.0229102
0.45579
0.468011
0.00522913
-0.0328813
0.541422
0.00475154
-0.655722
0.571107
0.193132
-0.00669858
0.00523195
-0.637995
0.165015
0.863175
0.0318896
-0.720321
0.688431
0.760864
-0.821145
0.0602815
-0.778671
-0.034471
0.0487057
-0.0142348
0.0866263
-0.117649
-0.101999
0.219648
-0.00753696
-0.0114736
0.765029
-0.73314
0.93683
0.028639
-0.340944
-0.552903
0.893847
-0.00149493
0.00149493
0.18067
0.470793
0.518512
-0.989305
-0.196383
-0.549201
0.745584
-0.0199913
0.199869
0.380103
-0.231603
1.02491
-0.554122
0.816639
0.964713
-0.4462
0.187361
0.766952
0.586504
0.237277
0.639536
-0.637704
0.319178
-0.0220127
-0.000895973
0.0229087
0.933239
0.0109905
-0.944229
-0.550567
0.527734
0.546254
-0.550567
-0.586504
0.527734
0.0126292
0.938147
-0.00131754
-0.535764
0.448584
0.0871803
0.534594
0.632421
-1.16702
0.531181
0.493734
0.640447
0.536213
-1.17666
0.536933
0.42778
0.448584
-0.513412
-0.494073
-0.657217
-0.612019
-0.248277
-0.00737894
0.00737894
0.641417
0.530982
-1.143
0.70542
-0.353514
-1.07002
0.361406
-0.694093
0.451954
-0.0564149
-0.937326
0.993741
0.453224
-0.100113
1.03335
-1.07306
-1.04296
0.127263
0.9157
0.26605
-0.223673
-0.0423768
0.729118
-0.796948
0.982129
-0.973445
-0.008684
-0.0245727
-0.789026
-0.20058
0.908627
-0.708048
-1.04058
1.01601
-0.652873
0.524678
0.128195
-0.67315
-0.0638069
0.736957
0.00363902
-0.00513395
0.423803
0.0909265
-0.949414
0.858488
-0.805132
0.742229
1.07814
0.100908
-1.17905
0.0351796
-0.0138323
0.418699
-0.36167
0.0391408
0.924359
-0.980774
-0.644511
-0.73543
-0.0535961
-0.161403
-0.937226
-0.036219
0.42246
0.172681
-0.0837139
0.349764
-0.698525
0.634719
0.472161
-1.03744
-0.939675
-0.00152759
-0.00442634
0.63763
-0.633204
0.0565153
-0.648938
0.578676
0.182188
0.0608955
0.972456
1.14327
0.926502
-0.962721
0.04669
-0.04669
-0.0723816
-0.0247448
-0.198928
0.33912
-0.0181316
0.205725
1.02897
0.0106026
-0.0181396
0.657288
0.342712
0.796499
-0.606299
-0.758714
-0.622213
-0.485222
0.485222
-0.209331
-0.109942
0.647841
-0.930515
0.282675
-0.469218
-0.53768
0.335071
-1.01303
-0.958386
0.949702
-0.705304
0.651707
0.659318
0.202504
-0.861822
-0.494018
-0.188452
0.862508
-0.674057
-0.070585
0.00946533
0.00187459
-0.0113399
-0.0243621
-0.000382671
0.982912
0.577237
-0.247823
-0.329414
0.53486
0.752592
-0.526196
0.0147589
-0.288196
-0.0172304
0.780111
-0.762881
-0.353709
-0.0702783
0.146283
-1.05958
0.115354
-0.728011
0.121795
0.729468
-0.851263
-0.894656
0.166645
0.720433
-0.790711
0.233281
-0.35093
-0.548936
0.0549178
0.367922
0.714706
-0.0220561
-0.00346491
0.00346491
-0.00635323
0.0115603
-0.0335731
-0.0163007
0.0269034
-0.376255
0.342447
0.750752
-0.823871
0.0731189
-0.694103
0.815898
0.805256
-0.0848228
-0.700322
-0.194334
-1.12643
0.0210359
0.0256541
-0.393485
-0.900901
-0.859729
0.448362
-0.182653
0.237938
-0.0552845
-0.321562
-0.0719234
0.487801
0.711823
-0.0473624
-0.0118929
1.00467
0.533894
0.163342
-0.697236
-0.274895
-0.0466671
-0.00302202
0.0124874
0.733338
-0.946678
0.00490779
-0.00490779
-0.725253
0.772772
-0.0475185
-0.358608
-0.13061
-0.698301
0.139983
0.635256
-0.0544622
-0.886753
-0.374354
0.26277
0.111584
0.757262
-0.684143
0.356171
0.251404
-0.607575
-0.167563
-0.706139
-0.145125
-0.19136
-0.234371
0.470705
-0.516509
0.173906
0.751321
-0.925227
0.483134
-0.20183
0.0191768
-0.068366
-0.166005
0.594107
-0.0947119
-0.499395
-0.287281
0.308229
-0.0209479
0.567332
0.138088
0.0991171
-0.313866
0.17196
0.141906
-0.0873704
-0.098321
-0.339725
0.155736
-0.0872222
-0.0685142
0.931993
-0.227429
-0.13118
0.553169
0.33362
-0.581443
0.398012
-0.398012
-0.201323
-0.392134
-0.219212
-0.392134
-0.730689
-0.852259
0.181144
-0.426357
0.735021
0.0500156
0.132303
0.582403
0.109858
0.119556
0.00998611
-0.129542
-0.163587
0.660351
-0.998319
0.445415
-0.044461
0.0683439
-0.0238828
-0.758879
-0.177789
-0.576583
0.739925
-0.519375
-0.0542571
-0.111748
-0.341651
-0.0795007
0.0795007
0.0493518
-0.000646051
0.140591
0.139617
-0.699635
0.123052
-0.045357
0.47327
0.52673
0.841346
0.0178897
0.0176596
-0.0355493
-0.300401
-0.586352
-0.523335
0.115978
-0.120541
0.00456346
-0.154323
-0.411052
-0.147244
0.7825
-0.592639
-0.16624
-0.00661405
-0.00146945
0.23876
-0.459367
-0.199345
-0.190367
-0.0249952
-0.469384
0.429619
0.0397657
-0.0494844
0.295062
-0.865432
-0.534064
0.618912
-0.884055
0.716492
0.441958
-0.0303845
0.05364
-0.0232555
0.131754
-0.634717
-0.0099027
0.64462
-0.892967
0.653346
-0.725728
-0.0486163
0.00714872
-0.00714872
-0.299107
0.420448
-0.00174852
-0.00327188
0.0211616
0.589476
0.54389
-0.603091
0.0113715
0.000202605
-0.00366752
0.00533229
-0.00533229
-0.468967
0.607055
0.0158128
-0.0158128
-0.781662
-0.00822027
0.0118593
-0.501636
0.624688
0.582377
-0.629895
0.0699281
-0.0699281
-0.00561755
-0.0272637
0.00950282
-1.08207
0.655199
-0.524252
-0.00513395
0.609435
0.00349346
-0.612928
-0.713882
0.121242
-0.31391
-0.0132602
0.32717
-0.0243566
-0.0230058
-0.609101
-0.0256167
0.0256541
0.0055617
-0.000653907
-0.00305469
0.00305469
-0.245036
0.176522
-0.473273
0.13434
0.662159
-0.114833
0.00533951
-0.00533951
0.508394
-0.109603
0.00864365
0.0185054
0.000198339
0.607786
-0.717388
-0.750666
0.619487
-0.103804
0.332148
0.785581
-0.00635323
-0.0834098
0.0886418
-0.633141
0.54616
-0.273151
-0.104447
-0.0304249
-0.0262266
0.00135883
0.472762
-0.0849247
-0.41447
0.713709
0.00204665
0.00300353
-0.00300353
-0.203579
-0.105419
-0.569757
0.619773
-0.132383
0.509476
-0.185964
0.862617
0.826995
0.0055617
-0.732007
0.616719
0.0392594
0.00336736
-0.0426268
0.570002
0.0930878
-0.0115852
0.06436
-0.0527748
0.00853049
-0.00853049
-0.739003
0.0232381
-0.0444157
0.0629212
-0.0852268
0.0852268
0.000202605
-0.00101372
0.757729
0.105446
-0.315485
-0.0955664
-0.520291
0.0326454
-0.0656701
0.0656701
-0.0411669
0.0821208
-0.0821208
0.0258119
-0.0258119
-0.358411
-0.0748677
0.238632
0.0703617
0.050572
-0.732624
-0.0626825
0.159409
0.022447
-0.236104
0.0820517
-0.0820517
-0.467765
-0.0487444
0.228034
-0.00932551
0.00250701
-0.669469
0.65684
0.00278698
-0.0439538
0.0424848
-0.0697485
-0.0121927
-0.158253
0.170446
-0.14849
-0.20244
-0.0802484
0.0802484
0.0538581
-0.0538581
-0.0275715
-0.0935661
0.121138
-0.0376123
-0.190697
-3.15356e-05
-0.00363598
-0.153275
0.329796
-0.0256425
0.471413
0.0096006
0.00838427
-0.0499511
0.0499511
-0.735631
0.314828
-0.127468
-0.206704
-0.0229946
-0.0165152
0.0190222
0.191125
0.0285228
-0.00217714
0.00237548
0.0859297
0.0300479
0.0565177
0.102892
-0.0211059
0.00921294
-0.00190426
0.00579751
0.00488719
0.000509112
-0.0053963
-0.00280093
0.0116473
0.0270936
-0.0270936
0.0478448
-0.0436938
0.0436938
-0.18971
0.0141818
0.0316915
-0.0752771
0.0172814
0.0783052
-0.0783052
0.230891
-0.233029
0.0845386
-0.0660784
-0.16695
-0.0146604
0.0146604
0.408292
0.250538
-0.521574
-0.0805453
-0.0399957
0.542633
0.00487248
-0.0548871
-0.457318
0.101881
-0.151277
0.168201
-0.0169237
-0.0482573
0.0482573
0.887462
-0.589348
-0.00424026
0.00143934
-0.00572612
-0.287732
-6.9161e-05
0.00497834
-0.0453383
-0.630643
0.569035
-0.664632
0.0145783
0.11003
0.0157189
0.0241392
-0.157003
-0.33255
0.257273
-0.0543361
0.0267645
0.173026
0.135203
0.238371
0.26168
-0.245961
0.00423328
-0.114706
-0.219964
0.0667692
-0.0102515
0.158352
-0.134213
-0.0684668
0.154397
-0.413228
0.118853
-0.101572
0.0582126
-0.472683
0.173179
0.180177
-0.248643
0.00947012
-0.17927
0.179201
0.00374652
0.15065
-0.027881
0.0476478
0.460746
0.0124332
0.0143473
-0.00124709
0.0366946
-0.236888
-0.202709
0.590543
0.166526
0.061508
0.0737003
-0.0641419
0.0453585
-0.0879853
-0.0304732
0.164763
-0.150184
0.0157061
-0.00787625
-0.106304
-0.0286199
0.0249191
0.251589
-0.0153596
-0.02439
-0.308526
-0.00882407
0.219317
0.137678
0.17715
0.0567804
0.0954951
0.0614152
0.528061
-0.00730056
0.106737
0.0407248
0.0678768
-0.108602
-0.271036
-0.194459
0.0275085
-0.221093
0.281018
)
;

boundaryField
{
    FrontBack
    {
        type            empty;
    }
    Top
    {
        type            calculated;
        value           uniform 0;
    }
    In
    {
        type            calculated;
        value           uniform -1;
    }
    Bottom
    {
        type            calculated;
        value           uniform 0;
    }
    Out
    {
        type            calculated;
        value           nonuniform List<scalar> 10(1.17163 1.04801 1.15129 1.03067 1.16863 1.0398 1.1724 1.0069 0.599335 0.611346);
    }
    circle
    {
        type            calculated;
        value           uniform 0;
    }
}


// ************************************************************************* //
