/*--------------------------------*- C++ -*----------------------------------*\
| =========                 |                                                 |
| \\      /  F ield         | OpenFOAM: The Open Source CFD Toolbox           |
|  \\    /   O peration     | Version:  2412                                  |
|   \\  /    A nd           | Website:  www.openfoam.com                      |
|    \\/     M anipulation  |                                                 |
\*---------------------------------------------------------------------------*/
FoamFile
{
    version     2.0;
    format      ascii;
    arch        "LSB;label=32;scalar=64";
    class       volVectorField;
    location    "20";
    object      U;
}
// * * * * * * * * * * * * * * * * * * * * * * * * * * * * * * * * * * * * * //

dimensions      [0 1 -1 0 0 0 0];

internalField   nonuniform List<vector> 
808
(
(0.89305 -0.0111042 0)
(1.02243 -0.0366399 0)
(1.15687 0.0052564 0)
(1.06973 0.0105071 -2.36797e-21)
(1.48103 -0.288769 0)
(0.956108 -0.026154 0)
(1.13658 -0.0561742 -3.76228e-22)
(1.13494 -0.0450756 0)
(1.35687 -0.228671 2.53288e-20)
(1.23325 -0.0899921 -9.02692e-21)
(1.15078 -0.00616386 8.14275e-21)
(1.38629 -0.257597 0)
(1.00428 -0.0482348 0)
(0.741908 -0.025122 0)
(0.883906 0.0753226 1.47996e-20)
(1.08514 -0.0387322 0)
(0.774319 0.0205631 -4.53062e-21)
(0.990088 -0.0412605 -5.38614e-23)
(1.1439 0.0173061 0)
(1.1168 0.00154802 0)
(1.1753 -0.0235499 -1.13636e-20)
(0.929185 0.121812 1.14127e-19)
(1.07555 0.0144978 -1.41916e-20)
(1.17788 -0.0324542 0)
(0.948196 0.178 0)
(1.34023 0.0776254 -2.61296e-20)
(1.28495 -0.175123 8.2802e-21)
(0.950104 -0.026562 -1.01249e-21)
(1.07442 -0.0255124 0)
(1.03307 0.0419459 -2.53057e-22)
(0.972399 -0.0294466 2.03127e-24)
(1.12412 -0.0140055 0)
(1.04537 0.0352888 0)
(1.067 -0.023037 9.46059e-22)
(1.30668 -0.0705435 8.78461e-21)
(0.741898 -0.121016 1.11863e-19)
(0.875462 -0.0307823 -5.11828e-21)
(1.02071 0.0280339 1.22249e-21)
(1.20196 0.0533728 -1.8962e-21)
(1.09249 0.0240209 0)
(1.26248 -0.062707 -1.68914e-20)
(1.27811 -0.131569 0)
(1.0113 0.000693912 -8.02725e-21)
(1.112 -0.0413993 7.79738e-21)
(1.23557 0.00768831 0)
(1.01079 0.0174783 -2.08863e-20)
(0.990662 0.035935 1.66405e-21)
(1.25676 -0.25153 5.48534e-21)
(1.17988 0.0488929 -3.66763e-21)
(1.41218 -0.179854 -3.65924e-20)
(1.12845 -0.0656385 1.57585e-21)
(1.14937 -0.0710765 0)
(1.12154 0.0007027 7.15191e-21)
(1.13026 -0.0120486 0)
(1.31144 0.240934 3.31415e-21)
(1.07369 0.0385244 -1.44609e-21)
(1.18243 -0.0012242 0)
(1.18786 -0.00554104 4.54335e-21)
(1.23751 -0.0932064 9.68973e-21)
(1.14393 0.0290813 2.11258e-22)
(-0.372593 0.201483 0)
(1.21784 -0.216248 -6.80367e-21)
(1.19574 -0.0165544 0)
(1.43335 -0.0725113 -2.91563e-20)
(1.12765 -0.0284662 -8.74933e-21)
(1.04302 -0.0291031 -7.85586e-21)
(1.36988 -0.125949 3.11427e-20)
(0.640185 0.0196604 0)
(1.12065 -0.0441228 0)
(1.44905 -0.357001 0)
(0.891688 0.0320445 -1.63812e-22)
(1.25584 -0.14317 -4.04791e-20)
(1.0123 0.05566 0)
(1.05531 -0.0372918 -2.41951e-21)
(1.12772 -0.339669 -5.69043e-20)
(1.11416 -0.0518631 -8.65415e-21)
(1.1423 0.0212704 4.55692e-22)
(1.31052 0.493081 2.453e-20)
(1.10813 -0.049157 0)
(1.01078 0.27655 -1.89881e-19)
(1.3529 0.0537968 1.53189e-20)
(0.733233 0.0198283 0)
(0.838609 0.0297875 -8.79914e-21)
(0.969153 -0.111672 4.25257e-21)
(1.10571 -0.0499337 7.03978e-21)
(1.18738 0.0123482 1.53318e-21)
(1.29043 -0.239019 0)
(1.33989 0.284969 0)
(1.08793 0.00203515 -9.95257e-21)
(1.36864 0.112916 2.95408e-20)
(1.07882 -0.0184896 1.05297e-20)
(1.32465 -0.12146 -1.45224e-21)
(0.964679 0.0254564 1.78757e-20)
(1.00423 -0.0224603 0)
(1.11658 0.0200383 1.63607e-21)
(1.33923 -0.0453758 -8.1633e-20)
(0.754446 0.0155859 -2.68995e-21)
(1.36715 -0.0234272 0)
(1.32929 -0.086006 0)
(1.43753 -0.0898943 -4.77527e-20)
(1.10181 -0.0547688 -2.26406e-21)
(1.12322 0.00897131 1.12887e-23)
(0.949385 0.0212228 9.31814e-21)
(1.1789 0.00374374 -5.35748e-22)
(1.30889 0.0303553 -2.61094e-20)
(1.00308 0.0068828 1.39934e-20)
(1.46847 -0.00936218 0)
(0.907027 0.0205598 0)
(1.097 0.0287543 2.78414e-21)
(1.20685 -0.220871 -7.13732e-21)
(1.26163 0.0191271 1.09461e-20)
(1.04502 0.0449225 -1.25755e-19)
(1.15767 0.0371396 -9.41126e-22)
(1.24629 0.0783636 1.48855e-21)
(0.790331 0.017723 0)
(0.917661 -0.0504693 7.67683e-20)
(1.1455 0.0194766 -2.66655e-21)
(1.44403 -0.268281 -1.81061e-20)
(1.12264 -0.038257 -5.82476e-21)
(0.926899 0.0178099 2.4381e-21)
(-0.452074 0.0369633 0)
(0.865195 -0.0160342 2.38454e-21)
(0.800637 0.0226931 0)
(1.06202 0.00332887 -8.19185e-23)
(1.01162 0.0288262 0)
(1.30214 0.323079 5.30326e-21)
(1.03609 -0.0538008 -3.0136e-20)
(1.38675 0.0712083 1.24887e-22)
(1.15088 -0.0623552 0)
(1.09288 -0.0220147 0)
(0.637747 -0.0474115 0)
(1.1309 -0.0398779 -3.1324e-21)
(1.24722 -0.0499438 9.71656e-21)
(1.06506 0.112173 -3.53642e-20)
(0.853319 -0.0228476 0)
(1.10238 0.0223605 -6.98547e-22)
(1.13894 0.156529 2.92668e-21)
(1.18957 0.0651227 -2.4703e-22)
(0.991242 0.0314091 2.61899e-21)
(1.12568 0.00662899 -9.46361e-24)
(-0.0280327 0.0122374 0)
(1.09661 -0.0216356 -1.17314e-20)
(1.09699 0.0663502 3.30931e-21)
(0.72506 0.0249663 -2.69468e-21)
(1.25381 0.170122 3.694e-21)
(1.14167 0.16929 1.34127e-21)
(1.04817 0.0169065 1.57468e-20)
(0.991335 0.0263379 0)
(1.22007 -0.040534 -3.28193e-20)
(1.07514 0.0553684 0)
(0.940273 0.0322712 5.4709e-21)
(0.967292 0.276602 1.51749e-19)
(0.967969 0.0353001 0)
(0.818024 0.0917095 0)
(-0.11036 -0.0172778 -6.21532e-20)
(1.3345 0.138598 -1.02754e-20)
(0.674936 -0.0216935 0)
(1.41911 0.0770589 0)
(1.15992 0.108651 0)
(1.34574 0.114604 1.15372e-20)
(-0.0463946 -0.135614 0)
(-0.0615002 0.0173857 2.96271e-20)
(1.02397 -0.0559405 8.59468e-20)
(1.00343 0.0382299 5.34554e-22)
(0.862999 0.000819947 0)
(1.03886 -0.040935 8.77689e-21)
(0.890753 0.0218554 0)
(0.772722 -0.043728 -9.28732e-20)
(1.0355 0.046199 6.23055e-21)
(1.12953 -0.033775 2.91732e-21)
(1.09495 0.00983489 4.99868e-21)
(1.01312 0.0681753 -1.26208e-20)
(0.854108 0.139527 -1.33526e-21)
(1.14127 -0.352539 5.70298e-22)
(0.912917 -0.0270627 0)
(1.06916 0.000656076 -1.25031e-20)
(0.875523 0.00916289 -1.14418e-20)
(1.38638 -0.170293 2.20488e-21)
(0.691466 0.0305683 0)
(1.0509 -0.146629 0)
(1.13274 -0.0306926 3.57766e-21)
(1.38088 0.216622 8.16071e-21)
(1.11489 0.0162332 3.30384e-21)
(1.03631 0.0186623 1.93203e-20)
(0.622374 0.0617036 -5.71556e-20)
(0.814114 0.00316295 2.05331e-20)
(1.13958 -0.0193237 4.12135e-21)
(1.38867 -0.0623993 -5.30587e-21)
(1.11614 -0.0325517 -5.35142e-21)
(1.3247 -0.0380805 4.54668e-21)
(-0.112019 0.0119683 4.49655e-20)
(1.27167 -0.0173616 0)
(0.614311 -0.0169811 0)
(1.0642 -0.0260819 -5.98583e-21)
(1.09874 0.0125576 3.45506e-21)
(0.00781748 0.056246 0)
(0.879235 -0.0243342 3.43963e-22)
(1.14234 -0.0459889 -2.73386e-21)
(0.968075 0.0300842 1.31186e-21)
(1.0782 0.0416477 -7.79174e-21)
(1.00651 0.0188122 2.69825e-21)
(1.05704 -0.0425079 2.41159e-21)
(1.0431 0.0253319 0)
(0.339109 -0.0466223 0)
(1.04674 -0.0637024 0)
(1.11724 0.107738 -2.50581e-20)
(-0.044161 -0.144105 4.5927e-20)
(1.08823 0.0364668 -9.77167e-24)
(1.09302 -0.0249137 0)
(0.757609 0.0204 -5.0493e-21)
(1.0977 0.0219815 1.51873e-21)
(-0.00859367 -0.0403135 -1.49495e-19)
(0.868702 0.0115261 -5.85447e-20)
(0.625464 -0.017951 0)
(0.887588 0.0384781 0)
(0.929233 0.0443376 5.81086e-21)
(1.02121 -0.117918 5.76454e-21)
(1.26951 0.395277 -4.33014e-21)
(1.06032 0.0390363 -1.06552e-22)
(1.2026 -0.0212241 -3.32926e-21)
(0.999136 0.0573951 0)
(1.35239 0.420061 -3.03563e-20)
(0.658767 -0.0259074 0)
(0.799419 -0.0221228 -2.90507e-21)
(1.04752 -0.0184208 3.84315e-22)
(0.577347 0.0139324 0)
(1.09995 -0.00625666 0)
(0.0696326 0.0133742 -4.93644e-20)
(1.17159 -0.0568929 -3.98017e-21)
(0.716511 -0.0152257 1.04472e-21)
(0.990434 -0.00226027 0)
(0.536256 -0.0193102 0)
(0.753794 -0.016961 -2.24202e-21)
(0.522711 -0.0198627 -4.49902e-22)
(1.34759 0.0596505 2.81355e-22)
(1.2024 -0.0381512 -3.99073e-21)
(0.694453 0.0179661 -1.98073e-21)
(1.11859 -0.00564761 1.38444e-22)
(1.08151 0.039921 1.004e-22)
(0.540707 0.0188717 5.35032e-21)
(1.21539 0.0102604 5.37372e-22)
(1.17027 0.000596132 0)
(0.912234 0.0933548 0)
(0.484582 0.0213472 0)
(1.04662 -0.00474294 0)
(1.15317 0.0253276 2.27508e-22)
(1.02785 0.0337753 0)
(1.16616 -0.00585435 0)
(1.04273 0.0575419 0)
(1.15503 0.159444 0)
(-0.0262301 -0.0562217 4.6254e-20)
(1.22235 0.0531313 -2.22435e-22)
(1.16077 0.0867753 0)
(1.33008 0.0406772 1.64066e-20)
(1.18406 0.0547203 5.62226e-22)
(1.12023 0.0367723 8.18821e-22)
(1.15975 -0.0801132 4.0377e-21)
(1.17419 0.0404275 0)
(0.565033 -0.0170286 5.27084e-21)
(1.05043 0.0447264 1.22749e-20)
(1.2816 -0.0912588 0)
(1.15487 -0.00389303 -1.7721e-21)
(1.2149 0.0444869 2.28623e-21)
(0.558157 -0.0647979 -2.22973e-21)
(1.11442 0.0263216 5.91261e-21)
(1.16997 -0.0335076 -4.0693e-21)
(1.05313 -0.00903019 0)
(1.23595 0.12455 -7.6593e-21)
(1.18359 0.0338562 -1.17583e-21)
(0.717736 0.122577 1.34657e-20)
(0.786201 -0.0892887 0)
(-0.022103 -0.0230968 0)
(0.974154 0.110635 -1.82129e-20)
(1.11617 -0.0287841 0)
(1.34458 -0.0859929 3.32807e-20)
(1.2218 0.0271722 5.74537e-22)
(1.1314 -0.000699426 3.91193e-21)
(1.20424 0.0319322 -2.05011e-21)
(1.37569 -0.0189631 1.17707e-19)
(1.02202 -0.329445 5.7452e-20)
(1.15052 -0.044884 -7.37053e-23)
(0.901407 -0.0483474 0)
(0.851509 -0.0590772 0)
(0.903224 0.00379351 -2.64258e-20)
(1.30451 -0.0580012 -5.3499e-20)
(1.13412 -0.0644833 0)
(0.665239 0.178048 1.21938e-20)
(0.323781 -0.136376 0)
(0.765558 -0.102832 4.336e-21)
(0.867979 0.146337 -1.4262e-20)
(0.807784 0.028251 -3.63142e-21)
(1.21026 -0.0712542 0)
(1.2598 0.00249875 -6.70187e-22)
(1.14436 -0.02049 4.49137e-21)
(0.755513 -0.0325181 -3.94441e-21)
(1.1787 -0.0700825 -3.77308e-21)
(0.742915 -0.0137142 0)
(1.09192 0.0738597 0)
(1.17975 -0.109359 2.34355e-21)
(0.882744 -0.0772708 -4.38012e-21)
(1.30828 0.0605493 1.82214e-21)
(1.12776 -0.0551359 -2.51027e-21)
(0.97049 -0.0666478 4.77612e-22)
(1.0863 -0.0398045 0)
(0.416715 -0.139516 1.37613e-20)
(1.33525 0.104636 -1.8943e-20)
(0.858488 0.0555542 -1.58794e-20)
(0.0647699 -0.258038 2.35805e-21)
(1.43189 -0.132365 2.58846e-20)
(0.825055 0.029877 5.2863e-20)
(1.29212 -0.102429 -2.48234e-21)
(1.11165 -0.0434381 1.92517e-23)
(-0.0558403 -0.145436 -7.85323e-21)
(1.00058 -0.00628844 0)
(1.03314 -0.0882494 -1.60409e-20)
(0.857544 -0.0338757 5.65647e-21)
(1.10048 -0.0467234 2.87393e-21)
(0.843002 0.0115573 -9.79505e-22)
(0.504648 -0.017357 -4.92142e-22)
(1.42028 -0.387494 -1.55383e-20)
(1.09273 0.0554371 0)
(1.00845 0.015796 3.77497e-22)
(1.12237 0.036853 -2.14529e-21)
(1.26406 -0.0660696 0)
(0.757545 -0.0890811 -7.93591e-21)
(1.12493 0.0548682 2.44515e-21)
(0.688976 0.0882339 1.24067e-20)
(1.16586 -0.054244 9.43156e-21)
(0.8883 -0.110482 4.28812e-21)
(-0.036766 -0.0871915 0)
(0.101751 0.0542503 -1.95878e-21)
(1.11481 0.0303781 0)
(0.899038 -0.0476122 -6.74429e-21)
(0.886359 -0.0294202 0)
(1.13598 -0.00514553 2.22573e-21)
(1.01692 0.0271281 0)
(1.14482 -0.100554 0)
(1.40277 -0.118114 2.20733e-20)
(0.798782 -0.0920279 0)
(1.04758 0.0108799 2.7045e-20)
(1.09897 -0.0125965 -7.39767e-23)
(1.04107 0.0467834 2.57803e-21)
(1.32376 -0.0309777 -1.83969e-20)
(1.2386 0.131731 -3.28264e-21)
(1.2387 -0.013417 9.31847e-21)
(1.12655 0.0634057 0)
(1.17046 -0.0751528 0)
(1.11127 0.0717458 1.49748e-21)
(1.2466 -0.0271429 0)
(1.38568 0.210402 -2.18606e-20)
(0.740906 0.0923775 2.25082e-21)
(1.02696 0.0181613 2.26615e-20)
(1.23542 0.0269871 -2.559e-22)
(-0.00912563 -0.030509 0)
(-0.0356041 -0.0942856 0)
(0.0798481 0.0526136 -4.3028e-20)
(-0.0477147 -0.136328 0)
(0.586592 0.144822 -1.04056e-20)
(1.18441 0.0505913 -1.67858e-21)
(1.13934 -0.0644349 -3.43468e-21)
(1.249 -0.151856 -6.29578e-21)
(1.24036 -0.0472977 0)
(0.680221 -0.00965131 -6.00537e-22)
(1.15848 0.0813075 0)
(1.11136 0.0322402 -5.79523e-23)
(0.503963 -0.11042 0)
(0.604846 0.0541845 -5.83713e-22)
(1.16167 0.0737064 0)
(1.14526 0.0245194 0)
(0.708569 0.133082 5.37897e-20)
(0.46488 0.0555072 -1.20346e-21)
(0.948359 0.0738207 4.92223e-22)
(1.00992 0.0178464 -8.93481e-21)
(0.190764 -0.106118 0)
(1.17792 0.0348299 -2.68157e-20)
(1.22677 0.0214555 -3.32221e-21)
(1.11779 0.0185302 2.65448e-21)
(0.535023 -0.0454339 1.19286e-20)
(-0.0512222 -0.114594 -9.40308e-20)
(1.18811 0.0660702 0)
(-0.0329242 0.0328662 0)
(1.21867 0.0376375 7.5669e-22)
(0.36307 -0.104976 -1.28373e-20)
(1.11701 0.0178479 -1.23977e-20)
(1.11067 -0.0481706 0)
(1.12676 -0.0501461 2.23962e-21)
(1.30966 -0.221465 3.135e-20)
(0.543507 -0.0536039 -9.5439e-21)
(1.15141 -0.0443299 4.93892e-22)
(1.1567 -0.081768 -2.72366e-23)
(0.476023 -0.125696 2.81168e-20)
(1.18822 -0.110764 -8.42104e-21)
(1.13571 0.0305701 0)
(1.19539 0.0848786 0)
(1.19618 -0.0994862 5.33183e-21)
(1.19632 0.0377971 3.00246e-21)
(0.797205 -0.106475 -8.85078e-20)
(1.19511 -0.11861 -1.28737e-20)
(1.13836 0.0449014 3.69803e-21)
(0.501738 -0.00121427 1.07879e-20)
(0.438851 0.101771 -1.00719e-19)
(0.0321718 0.116653 4.73661e-20)
(1.16874 0.185346 -6.44236e-21)
(1.24102 -0.499885 5.63119e-21)
(1.34279 0.0547865 -1.53559e-20)
(1.22561 -0.0619136 -6.31849e-21)
(0.940388 -0.239371 9.45832e-20)
(-0.229261 0.134296 0)
(1.16187 0.00984785 -6.89859e-22)
(-0.182335 0.10345 -2.24713e-20)
(1.2081 0.0623064 -6.54816e-22)
(1.23198 -0.045841 5.26977e-21)
(1.08437 0.037951 0)
(0.601569 -0.180847 0)
(1.16992 -0.050364 0)
(1.24779 0.062783 3.0086e-21)
(1.24835 -0.0175954 -2.36274e-20)
(1.16273 -0.0547226 -4.23296e-21)
(0.44975 0.015101 0)
(0.605491 0.00567945 0)
(0.618673 0.00373806 7.03847e-22)
(0.43185 -0.0111046 0)
(1.19226 0.0102036 0)
(1.02321 -0.0142089 2.37132e-20)
(0.42889 -0.326193 0)
(0.923641 0.0360392 0)
(1.09499 -0.0159746 0)
(1.16823 0.188235 -1.00634e-20)
(1.24227 0.0245485 7.38375e-21)
(0.9696 -0.0323537 6.43214e-21)
(1.29992 -0.404915 -1.09399e-19)
(0.669949 -0.236649 1.67902e-20)
(1.27639 0.129759 3.35108e-21)
(1.20063 -0.0276316 0)
(-0.364903 0.0653529 0)
(-0.234706 0.0802895 0)
(1.17844 -0.0328935 -7.14837e-21)
(1.32795 -0.292893 -2.61676e-20)
(1.30731 0.0642763 0)
(1.08582 0.0572659 -6.02448e-21)
(0.463574 -0.0189855 0)
(1.51985 -0.167327 7.61924e-20)
(0.408617 0.513237 1.2357e-19)
(0.283289 -0.0582647 0)
(1.1046 -0.280477 1.1744e-19)
(0.262164 0.252626 0)
(-0.104374 -0.210607 1.51436e-20)
(1.28278 0.0661051 0)
(-0.162693 0.0728335 1.76094e-21)
(0.983463 -0.0495176 0)
(1.3147 -0.12596 -1.56831e-20)
(-0.136721 -0.0507863 -7.7418e-21)
(1.13218 -0.0316579 5.39308e-23)
(1.12945 -0.019826 -1.23836e-20)
(0.577706 -0.52616 -9.16024e-20)
(1.17978 0.0457403 -9.94814e-22)
(1.19788 -0.1272 3.02037e-21)
(1.17503 0.247446 -2.4026e-20)
(1.18671 -0.247449 -9.23368e-21)
(1.17501 -0.0165563 -7.29884e-22)
(-0.132813 0.0954271 -5.46699e-20)
(0.00207436 0.0474397 -6.45623e-21)
(1.35851 0.121475 2.33179e-21)
(1.05794 -0.0491578 0)
(0.552717 0.075061 8.50461e-22)
(1.41036 -0.447044 8.29966e-20)
(0.943782 -0.0869783 -6.0991e-20)
(1.39923 0.161012 6.18441e-20)
(1.07983 -0.0426687 2.37316e-21)
(1.14619 -0.0676967 9.28866e-21)
(1.06227 -0.00692987 0)
(1.17727 -0.0195897 0)
(1.30714 -0.119814 7.54921e-21)
(1.08768 -0.0191911 -4.55313e-21)
(1.18932 -0.252866 1.00593e-20)
(1.11314 0.0524754 -4.14686e-21)
(1.42784 -0.00556081 -4.90317e-20)
(0.42074 0.0235752 0)
(1.19106 -0.123364 -2.39563e-22)
(1.29145 0.0577766 0)
(1.13493 0.0544894 -2.28348e-21)
(1.14502 0.0290732 0)
(1.0412 -0.00831764 1.21115e-20)
(1.23827 0.0459838 1.23919e-20)
(1.08814 -0.045695 0)
(0.0521991 -0.030118 1.57669e-19)
(0.884569 -0.218265 -7.41866e-20)
(1.31886 0.0481507 -3.3179e-20)
(-0.105047 -0.0710654 3.85593e-20)
(1.18757 0.0238741 2.84006e-22)
(0.715068 -0.014127 -3.48019e-21)
(-0.0937089 -0.0522239 -4.02023e-20)
(-0.0185594 -0.0247023 -2.47642e-20)
(1.02048 -0.0294936 0)
(-0.0307962 -0.0406492 0)
(1.17863 0.108325 0)
(0.112406 -0.1121 0)
(1.11962 -0.0317647 0)
(0.134128 0.0267054 0)
(1.12273 0.0382921 0)
(1.12585 0.0633034 0)
(1.37159 0.0605506 -5.29601e-22)
(0.579477 -0.287881 -2.17483e-20)
(-0.149469 0.059026 0)
(1.15153 -0.0953705 6.34807e-20)
(1.31158 0.0863566 3.07918e-22)
(1.30312 0.0985105 0)
(-0.0386744 -0.0428984 0)
(1.16582 0.0178837 1.73561e-21)
(1.17809 -0.00352373 -1.42852e-21)
(1.16147 0.386285 0)
(0.265116 -0.0930488 6.13991e-20)
(1.12205 0.0651447 1.36739e-21)
(0.234423 -0.0522411 -5.34717e-20)
(-0.0592969 0.0410454 -2.87938e-20)
(-0.0336391 0.0482245 7.55633e-20)
(0.139364 0.108736 5.75523e-22)
(0.986322 0.000705563 3.27498e-21)
(1.14543 0.0494256 -2.14071e-21)
(1.02419 -0.00753497 0)
(1.07061 -0.069859 -2.11438e-20)
(1.22285 0.0381305 -7.93617e-21)
(-0.0106973 -0.0468619 9.58551e-20)
(0.981442 -0.0734081 -5.95314e-20)
(0.741688 0.0179998 4.86316e-22)
(1.18286 0.0768494 -1.17556e-21)
(0.0719112 -0.0321584 3.39584e-20)
(0.244733 -0.0388676 -4.82054e-20)
(0.40945 -0.0704445 -5.567e-20)
(1.24106 0.0345639 1.35527e-21)
(-0.0565119 -0.0409923 0)
(1.05759 0.104963 2.82598e-22)
(1.11023 -0.162594 8.14156e-21)
(1.16302 -0.195671 -7.85049e-21)
(1.27385 0.0641553 0)
(1.5229 -0.226853 7.42074e-20)
(1.1446 0.0283483 -2.77707e-21)
(-0.0170773 -0.0539421 -3.31998e-20)
(0.252295 0.0649321 0)
(0.895986 0.0405499 -1.96295e-21)
(1.1276 0.0212356 -3.07729e-22)
(0.697128 -0.00591874 2.5803e-20)
(1.17115 0.0166435 5.01172e-23)
(1.11817 0.0550575 0)
(1.14855 -0.173188 -1.48996e-20)
(-0.0747603 -0.0985083 -6.82737e-20)
(1.31153 -0.0171816 2.39231e-20)
(1.09934 0.175047 -8.72122e-21)
(1.10932 0.0578181 4.7427e-21)
(-0.0437184 -0.0706809 1.55554e-20)
(-0.0199631 0.0194069 -5.64919e-20)
(0.796336 0.0829767 0)
(0.69975 0.18797 0)
(1.15025 0.103486 -1.89443e-20)
(1.05098 0.0698136 1.35102e-20)
(1.10623 0.0415407 0)
(0.582275 -0.00410645 5.6421e-20)
(0.708737 0.0826962 -1.01895e-20)
(1.09753 0.110188 0)
(1.09592 0.0599673 0)
(1.27922 0.0848304 0)
(1.16245 0.00826524 0)
(1.18433 0.112616 2.89956e-21)
(-0.0428698 0.0431754 3.14459e-20)
(1.21138 -0.00633023 7.04794e-21)
(1.42362 -0.196311 -8.54165e-20)
(1.19608 0.083452 -4.27259e-21)
(-0.0392297 0.131005 0)
(1.1555 -0.111231 0)
(0.61835 -0.00962472 4.89308e-22)
(0.522308 0.00778985 -5.41201e-20)
(0.0687279 0.0357085 4.42103e-20)
(0.932518 0.020436 -4.18556e-22)
(0.745306 -0.274209 0)
(0.679569 -0.0926714 0)
(1.14211 0.0527783 0)
(0.535425 0.508315 1.56408e-20)
(-0.0119579 -0.00252604 -2.71243e-20)
(1.1439 0.0693883 -5.67188e-22)
(-0.0238699 -0.0905765 6.35632e-20)
(1.15078 -0.0416457 1.78786e-21)
(1.16749 0.314095 4.58263e-20)
(1.11406 -0.0878617 7.71235e-21)
(0.237665 0.067026 7.17335e-20)
(1.12598 0.132261 4.73709e-22)
(1.03629 -0.0926538 0)
(0.551985 0.268133 0)
(0.893923 -0.0648566 4.71816e-21)
(-0.18478 0.0212804 0)
(0.60336 0.028862 1.77378e-21)
(0.60724 -0.420667 -3.19283e-21)
(0.233255 0.0484776 -1.04419e-19)
(1.12647 -0.230319 3.13739e-20)
(1.03399 0.359701 1.05844e-20)
(0.979132 0.015994 0)
(1.18509 0.0238744 3.1354e-22)
(0.626092 0.0161204 0)
(0.982575 -0.010907 -8.70254e-22)
(0.437359 -0.022632 0)
(0.711215 0.122558 0)
(1.00617 -0.0206636 -3.62334e-21)
(1.42675 0.181067 -1.10674e-20)
(1.13623 -0.0459415 1.1686e-21)
(0.525451 -0.496173 0)
(1.13656 -0.156209 1.91013e-21)
(0.800581 0.37173 7.28046e-20)
(-0.0383768 0.0212812 1.06358e-21)
(1.24101 -0.00250799 9.66765e-21)
(1.22446 0.0479247 -9.39777e-21)
(1.20346 -0.0574814 7.11688e-22)
(0.786802 0.00925992 -3.41982e-21)
(0.0611004 0.0178962 3.39616e-20)
(-0.0164826 -0.0660368 -5.34233e-20)
(-0.186427 0.0331099 0)
(-0.187147 0.159182 0)
(1.19091 -0.619937 3.2452e-20)
(1.16007 -0.0258236 7.12219e-22)
(0.891865 -0.46755 -4.38166e-20)
(1.04391 0.0265632 -9.88018e-22)
(1.35066 0.204125 2.95812e-20)
(0.597756 0.415967 0)
(0.244227 0.409615 -1.18898e-19)
(0.591952 0.472693 0)
(-0.0490288 0.0677123 0)
(1.12767 -0.484295 0)
(-0.0404536 -0.0310594 -1.31804e-22)
(1.19511 -0.00905694 0)
(0.784054 0.0978825 -1.8912e-21)
(0.589176 0.684714 2.00258e-20)
(1.25425 0.0687686 6.00271e-22)
(-0.0337703 -0.128875 -1.09725e-19)
(0.405684 -0.126927 1.33943e-20)
(0.444294 0.142559 -1.25561e-20)
(1.2056 0.102355 0)
(1.34941 0.357994 2.95551e-20)
(1.21395 0.562222 3.12514e-21)
(0.155271 -0.0149346 -2.01008e-20)
(0.976368 0.124419 2.7744e-20)
(0.928629 -0.0222187 -1.73637e-22)
(0.895035 0.026102 -8.03546e-23)
(-0.0106896 -0.0411483 0)
(0.65056 -0.661005 -3.016e-20)
(0.61245 0.192971 0)
(0.0880239 -0.124476 0)
(-0.0435874 0.0397406 0)
(0.00684094 -0.138099 -4.19378e-20)
(1.24928 0.00631441 -1.11053e-20)
(-0.0363591 0.0290366 0)
(-0.0272106 0.0145412 0)
(1.45017 0.125643 -5.94187e-20)
(-0.0401322 -0.0985256 4.94929e-20)
(0.113834 0.229195 -1.02871e-19)
(0.37792 0.0147171 0)
(0.170606 -0.284342 8.14735e-20)
(1.09157 -0.242364 0)
(0.999294 -0.288743 0)
(0.00984669 -0.120667 1.04101e-19)
(1.15243 0.0442981 -1.17105e-22)
(1.12007 0.340103 3.01218e-20)
(0.256469 0.0272386 4.27879e-20)
(0.40609 -0.522573 -3.66871e-20)
(1.24289 0.0922519 0)
(1.19849 0.19432 1.98657e-20)
(1.20411 0.213497 -2.4404e-20)
(0.10193 0.0821468 -2.36786e-20)
(-0.0603778 -0.0587479 0)
(1.07129 -0.0578127 -1.96505e-20)
(1.10505 -0.226313 -1.54465e-20)
(0.585109 -0.412413 0)
(1.09839 -0.152027 -2.58921e-20)
(-0.13316 0.135016 0)
(0.560396 0.0345414 0)
(1.41544 0.0402521 3.86981e-20)
(0.986709 0.0319557 3.97272e-22)
(1.06935 0.738182 -1.98091e-20)
(0.226894 -0.383794 1.31441e-19)
(1.10907 0.0335703 5.1979e-22)
(1.20728 0.0823979 -1.15414e-21)
(-0.0427314 0.0167821 2.7035e-20)
(0.779923 0.72636 3.251e-20)
(1.35492 -0.374347 -1.32872e-20)
(-0.0390452 0.074449 8.09572e-20)
(1.10448 0.0346286 0)
(0.107645 0.0362636 -5.77068e-21)
(0.902488 -0.639374 2.87976e-21)
(0.891419 0.636115 -1.41975e-20)
(0.547366 -0.037681 -6.30483e-20)
(1.15021 -0.00120841 -2.87886e-21)
(1.07644 -0.0839975 6.76847e-21)
(1.16224 0.0416473 2.33781e-22)
(1.10475 0.122998 5.42292e-21)
(1.13365 -0.128468 0)
(0.888581 0.10901 1.28797e-20)
(0.87704 0.455162 0)
(1.24472 0.0402695 -2.9326e-22)
(1.16699 0.118595 1.42391e-21)
(0.74164 0.261923 0)
(0.511084 0.108736 9.95842e-20)
(0.886615 0.705701 -1.02219e-21)
(1.07302 0.289372 -2.31332e-20)
(1.04276 -0.0103342 1.18484e-20)
(0.412811 0.482923 0)
(1.30178 -0.478037 0)
(0.563859 0.0559862 4.48984e-21)
(1.25261 0.501483 0)
(-0.0235329 0.0426739 -3.83016e-20)
(1.28857 -0.418941 -8.49538e-21)
(1.15802 0.506586 0)
(0.451926 0.208419 1.71791e-19)
(1.11034 0.314324 -1.09637e-19)
(0.819062 -0.647932 -2.58669e-20)
(1.1614 0.0365132 -2.01292e-21)
(0.900885 0.149959 7.3531e-20)
(1.08553 0.169268 5.625e-20)
(1.06234 0.698546 2.06344e-21)
(0.907299 -0.444181 6.54064e-20)
(1.41448 0.199862 3.25246e-20)
(1.13356 0.0119257 -7.51088e-22)
(-0.000163034 -0.0706326 9.18377e-20)
(1.08694 -0.707562 2.67761e-20)
(0.875102 -0.726006 5.30868e-20)
(0.252973 -0.342895 0)
(0.972728 -0.15026 7.34929e-20)
(0.360453 0.298586 -4.45858e-19)
(-0.0856562 0.0279497 2.50774e-20)
(0.222995 0.0271041 1.95e-20)
(0.676682 -0.0605722 -7.43811e-20)
(1.07227 0.524629 0)
(0.989091 0.219985 8.37655e-20)
(1.08716 0.0328516 3.85592e-21)
(0.904098 0.436528 -9.38675e-20)
(0.785618 -0.730372 -8.31179e-21)
(0.927247 0.0186297 -4.97505e-20)
(0.972247 0.484542 0)
(1.12227 0.0152665 -4.64428e-21)
(1.3863 -0.519022 1.32786e-20)
(1.2319 -0.344974 9.37638e-21)
(-0.257227 0.16731 2.94191e-20)
(0.194636 -0.0067002 -1.83332e-20)
(0.976259 -0.121379 -5.89679e-20)
(0.349348 0.517278 0)
(0.914063 0.0113873 3.96399e-20)
(1.14661 0.632151 7.06083e-20)
(-0.0568329 -0.0715191 1.46339e-19)
(-0.060403 -0.00952476 -2.24034e-20)
(-0.082542 -0.117043 3.97798e-20)
(1.09869 0.026855 -5.22406e-21)
(1.13465 -0.46436 0)
(1.07186 -0.741369 -4.20555e-20)
(0.695497 0.342252 0)
(0.043324 -0.0769197 -1.0869e-19)
(1.1248 0.0387962 2.83891e-21)
(-0.0380263 -0.121715 -2.92008e-20)
(1.04718 0.0577555 -1.2069e-20)
(0.102546 0.0239291 4.97322e-20)
(0.828278 0.124527 0)
(1.36957 -0.00210326 4.79296e-20)
(0.0257204 0.0195856 -2.21418e-20)
(-0.224134 0.11863 -3.49389e-20)
(-0.212511 0.0998169 0)
(0.0772103 -0.0222679 0)
(1.32921 -0.0040242 -1.41631e-20)
(0.378066 -0.0125281 1.53454e-19)
(1.27225 -0.732402 -2.28091e-20)
(0.860089 0.0343145 3.30474e-20)
(1.06753 0.250103 -3.2788e-20)
(0.370542 -0.566221 1.40241e-19)
(1.52979 0.287256 -2.98677e-20)
(0.0728128 -0.0930914 3.57817e-20)
(0.206901 0.295903 1.9885e-19)
(0.0968463 -0.0595398 -1.33545e-19)
(0.945734 -0.498992 -4.35852e-20)
(1.43961 0.389124 3.04601e-20)
(0.57036 -0.68295 4.88773e-20)
(1.10792 -0.0837044 -6.86156e-21)
(0.215619 -0.00220124 5.92825e-20)
(1.16365 0.289639 -4.33362e-20)
(0.657304 0.632207 -4.24037e-20)
(1.34261 -0.628074 0)
(1.402 0.517619 3.07897e-20)
(1.05755 -0.534105 -1.26659e-20)
(1.37573 0.603676 -8.70111e-20)
(1.17615 0.0212207 0)
(-0.0493029 0.0426315 0)
(1.24101 0.724858 0)
(1.15558 -0.00181925 -8.03702e-21)
(0.74433 -0.308817 -2.0853e-19)
(0.476584 -0.0912795 0)
(-0.0541646 0.031165 -2.29201e-20)
(1.02233 -0.249559 9.90208e-20)
(-0.281797 0.134159 0)
(0.3212 0.0160836 1.23854e-20)
(1.14086 0.0297938 0)
(1.39606 0.277022 0)
(1.1852 0.0350777 2.15557e-21)
(0.362616 -0.301423 0)
(1.0115 0.149678 3.97028e-20)
(1.29255 0.28826 0)
(-0.0824532 0.0012667 7.58199e-23)
(0.814442 -0.403848 0)
(1.50178 0.345013 -4.53224e-20)
(1.23331 0.367173 3.77931e-21)
(0.834886 0.638998 -1.02369e-20)
(1.00849 0.158121 -9.24264e-20)
(0.970674 -0.208084 -4.8301e-20)
(1.43722 0.29872 2.66736e-20)
(0.959238 0.0896579 0)
(0.563716 -0.0788311 0)
)
;

boundaryField
{
    FrontBack
    {
        type            empty;
    }
    Top
    {
        type            noSlip;
    }
    In
    {
        type            fixedValue;
        value           uniform (1 0 0);
    }
    Bottom
    {
        type            noSlip;
    }
    Out
    {
        type            zeroGradient;
    }
    circle
    {
        type            noSlip;
    }
}


// ************************************************************************* //
