/*--------------------------------*- C++ -*----------------------------------*\
| =========                 |                                                 |
| \\      /  F ield         | OpenFOAM: The Open Source CFD Toolbox           |
|  \\    /   O peration     | Version:  2412                                  |
|   \\  /    A nd           | Website:  www.openfoam.com                      |
|    \\/     M anipulation  |                                                 |
\*---------------------------------------------------------------------------*/
FoamFile
{
    version     2.0;
    format      ascii;
    arch        "LSB;label=32;scalar=64";
    class       volScalarField;
    location    "14.8";
    object      p;
}
// * * * * * * * * * * * * * * * * * * * * * * * * * * * * * * * * * * * * * //

dimensions      [0 2 -2 0 0 0 0];

internalField   nonuniform List<scalar> 
808
(
0.0967871
-0.00201065
0.0280154
0.0969661
-0.228765
-0.00123165
-0.0153663
0.00936219
-0.136525
-0.0495292
0.0247718
-0.149697
0.00680467
-0.00726657
-0.244021
0.00521231
-0.248038
0.00196699
0.0232882
-0.0155616
0.0313002
0.374015
0.06065
-0.0266085
0.451546
-0.17655
-0.0737424
0.000723354
0.00389393
-0.00393518
0.00125705
-0.00438044
0.00617352
0.00173459
-0.109141
0.618471
-0.00305644
0.00341732
0.0045103
0.00106692
-0.0790479
-0.0765317
0.0214823
0.0082179
-0.201369
0.0779143
0.000236763
-0.00171836
-0.00218316
-0.177219
-0.0112375
-0.00614298
0.031617
0.00216461
-0.0892398
-0.00536687
0.004375
0.0280716
-0.042611
-0.0129191
-0.302042
-0.0120502
0.0217306
-0.208759
0.015961
0.0323325
-0.281736
0.00309771
0.0167492
-0.277374
0.00683559
-0.306741
0.00397295
0.00319057
0.174365
0.00119049
-0.0314218
-0.0671361
-0.00826354
0.309957
-0.131584
-0.00134067
0.0152616
0.259664
0.00520218
-0.0518003
-0.349429
-0.108097
0.00622703
-0.18549
0.0166549
-0.120352
0.248206
0.149692
0.0283522
-0.296644
-0.00131234
-0.13871
-0.130205
-0.261856
-0.00358068
-0.0225294
0.0181075
-0.045651
-0.142285
0.0464281
-0.223435
0.00531753
-0.00806295
0.0171834
-0.0986419
0.328908
0.000479371
0.0121554
-0.00231569
0.44373
-0.00878969
-0.263471
0.00472845
0.0348642
-0.337032
0.021271
-0.00481575
0.0357531
0.103961
-0.0531986
0.0874458
0.0290157
0.00910545
0.0556911
-0.297997
0.00799696
-0.0762737
0.120052
0.00696693
-0.0101414
0.0276807
-0.0021421
0.00208296
-0.0143956
-0.275256
0.0261214
0.032261
0.00475572
-0.033603
0.0245433
0.0749691
0.138163
-0.178408
0.00317409
0.00241718
0.339826
0.00884671
0.530319
-0.273155
-0.101596
0.000184868
-0.210487
0.0237953
-0.122494
-0.295189
-0.276481
-0.295407
-0.00115841
0.0477378
0.00890925
0.00106552
-0.298941
-0.0012547
0.0194264
0.0174972
0.152146
0.0249261
0.110508
0.00110282
0.0494706
0.0591751
-0.168387
0.00603481
-0.330752
0.0175283
-0.139057
-0.00555279
0.249667
-0.239854
0.107005
0.00538153
-0.183422
0.0147281
-0.1312
-0.265081
-0.100191
0.00398781
0.061804
-0.0053421
-0.256611
0.00331293
0.0157292
-0.00261901
0.0711161
0.043962
0.0105432
0.0069253
-0.301597
0.369439
-0.261792
-0.293227
-0.00393752
0.0285212
0.000652509
7.80196e-05
-0.376831
-0.310849
0.00129324
0.0163797
0.00228309
-0.313178
-0.0365975
0.00711687
0.0211473
0.0208885
-0.086258
0.0115677
0.0119559
0.00139921
0.0040028
0.115251
-0.325252
0.0278316
-0.00110601
0.108449
0.00116178
0.00201243
0.00142861
-0.114243
0.0218367
-0.00497518
-0.000492003
0.0030954
-0.00392518
0.00299498
0.00113239
0.0029289
-0.0031999
-0.00193015
0.000226942
0.000490891
0.00071472
0.00328805
0.0208545
-0.302748
0.00167514
0.00137223
-0.165315
-0.00207415
-0.00824791
0.0148287
-0.000438119
0.0035743
0.120378
0.0174448
0.00271747
0.00389383
0.0600989
0.012514
0.00710599
0.0131526
0.0159302
0.012538
0.0374044
0.0282195
-0.372418
0.2718
0.00489832
-0.0961255
0.0122582
0.00454545
0.00545905
-0.269634
0.265684
0.0098768
0.0346133
0.0166239
0.0645616
-0.213578
0.00907295
0.0316121
0.0595421
0.0157711
0.0295559
0.00465251
0.0179464
0.0159247
0.0209614
0.0245928
0.0159933
0.0373109
0.0484636
0.0134462
0.0162332
0.0109182
0.00617823
0.0223281
0.00745261
-0.488141
-0.106133
0.0386568
0.036052
-0.193417
-0.242406
0.00962299
0.00651278
-0.296418
0.108977
0.140369
0.00227649
0.000962421
0.0291269
0.000555607
-0.217353
0.0109547
0.00066871
0.00907881
0.0118084
0.0105084
0.00982265
0.0383793
-0.0263211
0.0141935
-0.277631
0.0330601
0.012111
0.0414225
0.0596338
-0.00505325
0.225826
0.0115085
-0.183044
0.53943
0.0567667
-0.00107572
0.00821407
-0.0965823
-0.0544807
0.0345615
0.0103695
-0.0309586
0.0115149
-0.0714348
-0.239537
0.0457058
0.097524
-0.0705365
-0.269012
-0.29919
-0.306811
-0.298441
0.0572093
0.00778942
-0.00336187
-0.0439031
-0.0620133
-0.00110743
0.00771264
0.00084836
-0.481707
0.0632761
0.0108136
0.0116736
-0.342219
0.0682906
0.00455141
0.0924905
-0.323408
0.0459722
-0.0419082
0.0477561
0.0721113
-0.282378
0.0134165
-0.291794
-0.0095483
0.0740739
0.0132198
-0.0065735
0.00768112
-0.183787
-0.319917
-0.0146459
-0.013755
-0.107582
0.0013474
-0.0214307
0.00953451
-0.0357824
-0.019912
-0.259895
0.0197149
0.00157695
-0.00747251
-0.368847
-0.188302
0.0564767
-0.0123483
-0.154262
-0.0665308
0.414304
-0.301397
0.00462236
-0.133031
0.00292819
0.0252295
0.00406316
0.0297009
-0.0282684
0.0329802
-0.086504
-0.0275341
-0.00482114
-0.00630312
-0.007372
-0.00589188
0.0141545
0.0960341
-0.00652276
-0.00401443
0.00274665
0.0155182
-0.0753084
0.00993486
-0.363458
-0.0564379
0.0189496
0.00729223
-0.230029
-0.310762
-0.0386645
-0.0890769
-0.0415669
0.00810004
-0.189949
-0.240632
0.236618
-0.294315
-0.433455
-0.309948
-0.0554575
-0.0824601
-0.317517
0.342565
-0.0876209
-0.290745
-0.0100126
0.0478233
0.561723
-0.00214104
-0.00708296
0.0441429
-0.0924486
-0.0299549
-0.314758
-0.25566
0.0195845
0.0431555
0.0302963
-0.255111
-0.291435
-0.207764
-0.000420829
0.0191287
0.0821429
-0.0396062
-0.0792843
0.0685207
-0.0335323
0.00696802
-0.210848
-0.28786
-0.0277958
-0.0979418
0.00264354
-0.00155744
0.0584567
-0.0596222
0.0107858
-0.437516
0.442901
-0.302019
-0.28148
-0.0518167
0.00753978
-0.277129
-0.264998
0.101235
-0.313201
-0.196396
0.85609
-0.00172714
-0.331092
-0.0130639
-0.0951859
-0.000271934
-0.44087
-0.274335
-0.292977
0.0021807
-0.261034
-0.335677
-0.023859
-0.0380644
0.103498
-0.291894
0.0213828
-0.47622
-0.30699
-0.367379
-0.105429
0.0117194
-0.00570274
0.0960098
0.110254
-0.051337
-0.278996
0.294647
0.0405744
0.00547055
-0.411477
-0.472203
-0.310014
0.0156342
-0.325509
0.0420724
0.0192603
-0.0203146
-0.256653
-0.225242
0.00212084
-0.292412
-0.265648
-0.00459581
-0.0254512
-0.212454
-0.0229325
0.0273363
-0.35946
-0.307471
-0.123829
0.0956903
0.00862847
-0.309146
-0.274579
-0.344618
-0.205141
0.0338
0.0926837
-0.000817101
-0.340706
-0.282595
0.0971622
0.00682822
-0.172014
0.0186676
0.0182081
-0.315291
0.0205373
-0.261014
0.0244708
-0.278639
0.0348736
-0.00195691
-0.346488
-0.434307
-0.000282268
-0.45471
-0.435403
0.0222055
-0.0572755
-0.26705
0.000834721
-0.285641
0.0167563
0.0790817
0.0437823
-0.281257
0.0189187
0.0601067
-0.429476
0.0107177
-0.293944
0.00206866
-0.30812
-0.486599
0.0873222
0.274414
0.436554
0.00728301
-0.00375426
-0.000463322
-0.316736
0.642252
0.00304847
-0.196799
0.0113235
-0.0721669
0.0658217
0.48623
-0.351835
-0.0590785
-0.0511119
0.0196812
-0.00749093
-0.430706
-0.271757
-0.293519
-0.279241
-0.270108
-0.0153478
-0.349464
0.040266
-0.250922
-0.292263
0.518477
0.592298
-0.28062
0.105002
-0.271354
-0.0440894
-0.0314687
0.414433
-0.0457222
-0.299587
0.0451253
-0.485257
-0.0313748
-0.185588
-0.01198
-0.298653
-0.255762
0.000315001
-0.00158063
-0.301645
0.437723
0.674871
-0.307799
-0.282077
-0.30548
-0.0665176
-0.289443
-0.268691
-0.166965
-0.300869
0.757363
-0.323896
0.734462
-0.39371
0.319639
-0.294567
-0.00741681
0.17765
-0.477839
0.21326
-0.255584
-0.294608
-0.321907
0.86947
-0.273312
0.197668
0.13726
0.634994
0.109948
-0.292746
-0.261521
-0.205813
-0.00457822
0.095967
0.510242
-0.00173784
-0.028106
-0.271381
0.130028
-0.124587
-0.342743
0.0145228
-0.261368
-0.159849
-0.139888
-0.344937
-0.00849567
0.0878726
-0.0164769
0.0712279
0.0960847
-0.315584
-0.336863
-0.0158398
0.00532481
-0.442801
-0.489454
0.185611
0.193959
0.0716409
0.67242
-0.0835036
-0.264609
-0.364128
-0.284075
-0.0644152
0.0890206
0.762531
-0.428927
0.366191
-0.0245366
-0.404803
0.152198
-0.0625796
0.375872
-0.146476
0.00375292
-0.308328
-0.082745
0.185597
0.805828
0.325612
0.761453
-0.319105
-0.282891
-0.395552
0.17338
0.267693
0.0550075
0.385641
0.127235
0.492887
0.280704
-0.00490059
-0.187425
0.014906
-0.283521
0.879969
0.404616
0.654613
0.508713
-0.250028
-0.311618
-0.270996
-0.286025
0.0402118
-0.395414
0.0947569
0.598126
-0.327344
-0.00273072
-0.287247
0.184455
-0.313427
-0.348448
-0.187475
-0.267163
-0.286768
-0.298034
-0.31745
-0.149993
-0.393832
-0.135452
-0.238624
0.147463
0.645297
-0.204984
-0.297155
0.82806
-0.297654
0.277899
-0.221484
0.377685
0.0726282
-0.313249
-0.375972
0.450203
-0.272233
-0.304409
0.180716
-0.259255
-0.0402019
-0.28048
-0.105407
0.0186018
0.562604
0.775327
-0.277241
0.216154
-0.293278
0.818863
-0.0284129
-0.296059
-0.0425324
0.756468
0.206296
-0.303372
-0.267977
0.446351
-0.199288
0.0419631
0.357984
0.25283
0.286998
-0.236915
-0.289413
0.684616
)
;

boundaryField
{
    FrontBack
    {
        type            empty;
    }
    Top
    {
        type            zeroGradient;
    }
    In
    {
        type            zeroGradient;
    }
    Bottom
    {
        type            zeroGradient;
    }
    Out
    {
        type            fixedValue;
        value           uniform 0;
    }
    circle
    {
        type            zeroGradient;
    }
}


// ************************************************************************* //
