/*--------------------------------*- C++ -*----------------------------------*\
| =========                 |                                                 |
| \\      /  F ield         | OpenFOAM: The Open Source CFD Toolbox           |
|  \\    /   O peration     | Version:  2412                                  |
|   \\  /    A nd           | Website:  www.openfoam.com                      |
|    \\/     M anipulation  |                                                 |
\*---------------------------------------------------------------------------*/
FoamFile
{
    version     2.0;
    format      ascii;
    arch        "LSB;label=32;scalar=64";
    class       volScalarField;
    location    "1076";
    object      yPlus;
}
// * * * * * * * * * * * * * * * * * * * * * * * * * * * * * * * * * * * * * //

dimensions      [0 0 0 0 0 0 0];

internalField   uniform 0;

boundaryField
{
    FrontBack
    {
        type            empty;
    }
    Top
    {
        type            calculated;
        value           nonuniform List<scalar> 
15
(
142.2798189461963
133.5813703457802
138.070483962868
144.4102177571683
159.7730025454084
131.3688667482472
140.1329394828907
135.3625250156915
153.4411112815895
135.7413440640028
136.0972603702438
136.7693356349056
125.2550646418305
132.9071421832739
123.9485718875436
)
;
    }
    In
    {
        type            calculated;
        value           uniform 0;
    }
    Bottom
    {
        type            calculated;
        value           nonuniform List<scalar> 
15
(
155.5652677259289
158.1157662394809
141.083992141641
142.0543464752143
141.1790878608407
148.4315358655855
142.6996892931822
143.1578786982661
143.42360009443
134.0545477438613
125.7285203099651
141.5514002874477
122.4091250866514
123.4903599276596
124.1345736312799
)
;
    }
    Out
    {
        type            calculated;
        value           uniform 0;
    }
    circle
    {
        type            calculated;
        value           nonuniform List<scalar> 
32
(
56.33353203044048
22.24688160745012
65.33454799361111
23.44297705283015
19.09382806452567
56.1433610330064
56.80505053844078
24.07145259277253
22.39819527431893
65.55928567382387
40.14237289638502
63.05626302679315
50.31994046059134
13.82968104976064
23.77044343834331
18.47702152643438
38.91918221101056
59.59165106973511
60.98172913741384
24.44414132004626
65.6997610525473
63.84424590689186
62.94142950182947
59.94993713346856
64.07599130678959
45.91596177463152
66.34429688851981
32.01867652576825
38.05360958570782
55.78447206942044
20.96971736606399
43.18906649781563
)
;
    }
}


// ************************************************************************* //
