/*--------------------------------*- C++ -*----------------------------------*\
| =========                 |                                                 |
| \\      /  F ield         | OpenFOAM: The Open Source CFD Toolbox           |
|  \\    /   O peration     | Version:  2412                                  |
|   \\  /    A nd           | Website:  www.openfoam.com                      |
|    \\/     M anipulation  |                                                 |
\*---------------------------------------------------------------------------*/
FoamFile
{
    version     2.0;
    format      ascii;
    arch        "LSB;label=32;scalar=64";
    class       volScalarField;
    location    "1525.5";
    object      yPlus;
}
// * * * * * * * * * * * * * * * * * * * * * * * * * * * * * * * * * * * * * //

dimensions      [0 0 0 0 0 0 0];

internalField   uniform 0;

boundaryField
{
    FrontBack
    {
        type            empty;
    }
    Top
    {
        type            calculated;
        value           nonuniform List<scalar> 
15
(
142.2735181353102
133.5674767942155
138.0693910409576
144.400989699751
159.7699244583851
131.36847742576
140.1222701911994
135.3562896246935
153.4341188720896
135.7448081298622
136.0927417786038
136.7731900007799
125.2438392366864
132.9025477391205
123.9471135976424
)
;
    }
    In
    {
        type            calculated;
        value           uniform 0;
    }
    Bottom
    {
        type            calculated;
        value           nonuniform List<scalar> 
15
(
155.5653449071923
158.1126730571669
141.0927865274089
142.0699153041248
141.1838276090124
148.4452717123794
142.7058068413244
143.1666705817948
143.4237434213093
134.0571819775483
125.7337428992286
141.5539447380614
122.411981919947
123.4917524942621
124.1407118830837
)
;
    }
    Out
    {
        type            calculated;
        value           uniform 0;
    }
    circle
    {
        type            calculated;
        value           nonuniform List<scalar> 
32
(
56.36675524913203
22.08163283181529
65.31697852166769
23.85696727822039
19.17141608774547
56.18688713859671
56.81279269679199
24.17926701086838
22.31977826074613
65.5352516403249
40.19402290258424
63.04828672107401
50.31015935508871
13.6527090368559
23.65584451465926
19.07818559361827
38.88469835769434
59.59799580763696
61.01669619278255
25.21496438236354
65.72509318153659
63.8149958273433
62.95645924049331
59.91505898201414
64.10531987071715
45.9726822781207
66.36582458630785
32.09932292760488
37.99098218904994
55.7422605783354
21.13417733291795
43.1423525368436
)
;
    }
}


// ************************************************************************* //
