/*--------------------------------*- C++ -*----------------------------------*\
| =========                 |                                                 |
| \\      /  F ield         | OpenFOAM: The Open Source CFD Toolbox           |
|  \\    /   O peration     | Version:  2412                                  |
|   \\  /    A nd           | Website:  www.openfoam.com                      |
|    \\/     M anipulation  |                                                 |
\*---------------------------------------------------------------------------*/
FoamFile
{
    version     2.0;
    format      ascii;
    arch        "LSB;label=32;scalar=64";
    class       volScalarField;
    location    "16.2";
    object      p;
}
// * * * * * * * * * * * * * * * * * * * * * * * * * * * * * * * * * * * * * //

dimensions      [0 2 -2 0 0 0 0];

internalField   nonuniform List<scalar> 
808
(
0.108829
0.00263949
0.0218124
0.10929
-0.202478
0.00373949
-0.00999644
0.0156443
-0.113081
-0.0335883
0.0260923
-0.125501
0.0101461
-0.00167879
-0.284865
0.00763148
-0.296973
0.00403035
0.021202
-0.0053252
0.0221931
0.374751
0.0588664
-0.0126851
0.452034
-0.185764
-0.0545756
-0.000970694
0.00473697
0.00333973
0.0014166
0.00671729
0.0104798
0.00228911
-0.0913866
0.625879
0.000169826
0.0111448
0.00867971
0.00581752
-0.062849
-0.058258
0.0215646
0.0114661
-0.194916
0.0759122
0.00677147
0.0166191
0.00248798
-0.151803
-0.00584987
0.00786761
0.0303877
1.39003e-05
-0.0987318
-0.00103796
0.00333069
0.0301142
-0.0256138
-0.00766554
-0.276147
0.00560356
0.025151
-0.184275
0.0170939
0.0323732
-0.242967
0.0140491
0.0151192
-0.251003
0.0115946
-0.278139
0.0113624
0.00797324
0.190754
0.000519563
-0.0254562
-0.0783103
-0.00544122
0.307291
-0.135218
0.005665
0.0229577
0.272161
0.00343866
-0.045088
-0.32049
-0.118285
0.0142062
-0.208267
0.0282094
-0.100517
0.247169
0.148085
0.0272537
-0.24913
0.0134458
-0.131388
-0.110772
-0.221076
0.000225105
-0.0154901
0.0278471
-0.0404964
-0.133783
0.0451911
-0.208242
0.0121905
-0.00320281
0.0355768
-0.0977634
0.327804
0.00551244
0.0274782
0.00772325
0.450857
-0.00127591
-0.235502
0.00653061
0.0456384
-0.285217
0.0223039
0.00040356
0.0469984
0.101649
-0.0621145
0.100472
0.0374228
0.0238132
0.0548355
-0.245967
0.0146979
-0.0629064
0.116221
0.0109049
-0.00413301
0.026596
-0.00184764
0.00792427
-0.00574426
-0.296391
0.0384172
0.0214041
0.00921495
-0.0415042
0.0522738
0.0863071
0.14978
-0.0987624
0.0104613
0.00552309
0.338792
0.0176156
0.532673
-0.280269
-0.112231
0.00396548
-0.217883
0.0212034
-0.133036
-0.27236
-0.291959
-0.253376
0.00528238
0.0476486
0.0105024
0.00828639
-0.254055
0.00263795
0.0208987
0.0268892
0.149775
0.0503789
0.12732
0.00464092
0.0614142
0.0576516
-0.143784
0.0121913
-0.301625
0.0211011
-0.152988
0.0025739
0.261917
-0.286779
0.105069
0.00728017
-0.164516
0.0170677
-0.112529
-0.277151
-0.0877559
0.0071234
0.0746217
0.00264925
-0.284297
0.00500221
0.021073
-0.00124097
0.068402
0.0553933
0.0158957
0.0107237
-0.273066
0.372127
-0.282394
-0.272513
-0.0020338
0.0241677
0.00604733
0.00172058
-0.347549
-0.254216
0.003778
0.0138786
0.00761977
-0.283201
-0.0463922
0.00770702
0.0281976
0.0205449
-0.0967447
0.0147279
0.0142641
-0.000362335
0.013471
0.113332
-0.270371
0.0494512
0.00267744
0.106148
0.00378769
0.00534318
0.00169708
-0.11411
0.0208197
-0.00249532
-0.00109768
0.00257407
0.00418792
0.00172232
0.000618062
0.00378177
-0.00363988
-0.00282856
0.000562096
-0.0018858
0.000367614
0.0033829
0.0343083
-0.277494
-0.00152376
-0.00132388
-0.160408
-0.00191369
-0.00399233
0.017769
0.00137152
0.0069309
0.117416
0.0370025
0.00366102
0.00418315
0.0612782
0.0137786
0.0103288
0.0189732
0.0302536
0.0200004
0.0193982
0.0281623
-0.343615
0.270143
0.00568455
-0.0604765
0.010446
0.00558244
0.00444999
-0.234241
0.280767
0.0156827
0.0277092
0.0238574
0.0756734
-0.160276
0.0110645
0.0349981
0.0939512
0.0212815
0.0214928
0.0115778
0.0226923
0.0214702
0.0236891
0.0356886
0.0154426
0.0254906
0.0459239
0.0318481
0.0302893
0.0143921
0.0117097
0.0301971
0.00740371
-0.456058
-0.11205
0.0187489
0.0561255
-0.167267
-0.26043
0.0214622
0.0103595
-0.275568
0.121607
0.153322
0.00458198
0.00424761
0.0452563
-0.00136947
-0.192397
0.0195966
-0.00217988
0.0123182
0.00902615
0.00853777
0.0156505
0.049579
-0.0182302
0.0136709
-0.270625
-0.0194742
0.0172495
0.0285368
0.0746444
-0.00377121
0.224504
0.0143887
-0.159129
0.547007
0.0463286
-0.00173917
0.0137457
-0.0749277
-0.0608062
0.0494614
0.0170078
-0.0240888
0.0200261
-0.0631702
-0.259663
0.0567166
0.0948969
-0.0751358
-0.268374
-0.275197
-0.261081
-0.273133
0.0619898
0.0137111
-0.000245696
-0.0374323
-0.04923
-0.00279593
0.0174993
-0.000260402
-0.450128
0.0608529
0.0240521
0.013124
-0.342973
0.0496442
0.00971901
0.104447
-0.287221
0.0434521
-0.0499645
0.0512005
0.0297624
-0.270275
0.0172979
-0.308844
-0.00337941
0.0258161
0.0145944
-0.00391775
0.00730714
-0.111262
-0.290933
-0.00843213
-0.00768683
-0.0233992
-0.00757806
-0.0176835
0.0184979
-0.0296186
-0.0193525
-0.133261
0.0358184
0.0045349
0.00243045
-0.32139
-0.143432
0.0513185
0.00946726
-0.160923
-0.0491463
0.426465
-0.304847
0.00307121
-0.163401
0.00707748
0.0317393
0.0119786
-0.0249269
-0.016115
0.0120573
-0.080117
-0.0179905
-0.00628062
-0.0085342
-0.00951177
-0.00903585
0.0134069
0.109138
-0.00427499
0.00329514
0.00423905
0.00967638
-0.0869023
0.0116946
-0.334413
-0.0364895
0.0337289
0.00282991
-0.25175
-0.286903
-0.0314107
-0.0672125
-0.0642422
0.0146821
-0.143426
-0.208655
0.225003
-0.26606
-0.402376
-0.337444
-0.0854522
-0.110237
-0.269745
0.350818
-0.0550232
-0.276133
-0.00496285
0.027672
0.576977
0.000934664
0.00936823
0.0372137
-0.0493203
-0.0251519
-0.283988
-0.282998
0.0448641
0.0552266
0.0581483
-0.229208
-0.256417
-0.233357
0.0012278
0.00541473
0.0806723
-0.0305839
-0.0482859
0.0672374
-0.0190863
0.0145289
-0.19213
-0.305617
-0.0264804
-0.116897
0.00892682
-0.0041928
0.0708937
-0.0629477
0.00569168
-0.4066
0.45293
-0.26948
-0.272232
-0.0484199
0.00446747
-0.275984
-0.268531
0.114327
-0.286064
-0.229126
0.863025
0.00106056
-0.304069
-0.00795121
-0.137274
-0.005527
-0.408917
-0.281721
-0.261049
0.00463002
-0.281535
-0.307885
-0.0247746
-0.0362674
0.0959558
-0.258368
0.0189952
-0.444601
-0.324296
-0.384764
-0.205124
0.00551022
-0.00286863
0.0943677
0.123373
-0.0556053
-0.26672
0.306545
0.0820593
0.0116648
-0.381336
-0.440795
-0.27831
0.011852
-0.297714
0.0917624
-0.00472649
-0.0303276
-0.252327
-0.197014
0.00394853
-0.271728
-0.294797
-0.0037671
-0.0206876
-0.153628
-0.0227986
0.0243945
-0.329817
-0.282273
-0.106588
0.0911838
0.0138072
-0.28269
-0.289412
-0.274646
-0.290012
0.0287336
0.0899668
-0.00152878
-0.270657
-0.30085
0.0931848
0.0156693
-0.226864
0.0210866
0.0237375
-0.33207
0.0175924
-0.230091
0.0231455
-0.307469
0.00836998
-0.00528691
-0.36373
-0.452871
0.000367709
-0.423194
-0.404178
0.0210056
-0.0721198
-0.274734
0.00016844
-0.268614
0.0215366
0.0725809
0.0579172
-0.298865
0.0576305
0.0295169
-0.447981
0.00768985
-0.284837
0.00770086
-0.277755
-0.505641
0.103871
0.269413
0.443299
0.00620341
-0.00608481
-0.00140065
-0.288653
0.645007
0.00551196
-0.218611
0.0166347
-0.0450386
0.080914
0.483708
-0.368663
-0.0554636
-0.0515478
0.0242491
0.00146772
-0.449198
-0.264966
-0.273993
-0.303456
-0.242153
-0.0109806
-0.31914
0.0714739
-0.269231
-0.309459
0.510482
0.588119
-0.315436
0.12425
-0.27506
-0.0333566
-0.122602
0.405316
-0.0914846
-0.274693
-0.035576
-0.504276
-0.0353514
-0.19887
-0.02275
-0.313793
-0.279339
-0.00229048
-0.00184908
-0.275479
0.455337
0.675292
-0.269349
-0.298932
-0.276733
-0.0653539
-0.304951
-0.280946
-0.19076
-0.274817
0.753465
-0.339733
0.747186
-0.363311
0.333214
-0.266035
-0.00918326
0.171936
-0.496598
0.236213
-0.280103
-0.311915
-0.338788
0.870783
-0.27219
0.211508
0.153484
0.647225
0.124352
-0.333481
-0.288783
-0.194908
0.000918811
0.0850907
0.52843
0.0022583
-0.0332041
-0.283469
0.117607
-0.10175
-0.308747
0.0169059
-0.320657
-0.131991
-0.155158
-0.315714
-0.00843535
0.101291
-0.0165654
0.0672451
0.111115
-0.333103
-0.354033
-0.0451242
0.000711119
-0.461122
-0.508321
0.175211
0.189789
0.0842147
0.668616
-0.0608854
-0.270942
-0.380609
-0.30022
-0.0427456
0.0802334
0.763088
-0.447293
0.384085
-0.0240504
-0.423623
0.148193
-0.0758072
0.391665
-0.162226
0.00308841
-0.282837
-0.0575211
0.20692
0.815748
0.336859
0.759804
-0.286705
-0.30206
-0.36542
0.165146
0.265437
0.0529521
0.380336
0.150972
0.499283
0.274363
-0.0360739
-0.162164
0.0336101
-0.30682
0.883963
0.413893
0.649088
0.512869
-0.265168
-0.278183
-0.279182
-0.271636
0.0383613
-0.365493
0.116605
0.596333
-0.288888
0.000526832
-0.270394
0.181567
-0.328198
-0.365906
-0.172878
-0.289329
-0.302148
-0.281979
-0.291294
-0.133729
-0.363579
-0.109986
-0.223501
0.142507
0.660081
-0.221495
-0.26897
0.826884
-0.27049
0.29452
-0.235741
0.397709
0.086348
-0.263605
-0.394069
0.443044
-0.244724
-0.319991
0.199569
-0.274091
-0.0379151
-0.295889
-0.118626
0.0205852
0.574192
0.781381
-0.2913
0.230292
-0.29548
0.822322
-0.0249816
-0.312365
-0.0417777
0.766018
0.203366
-0.319609
-0.279992
0.460201
-0.213197
0.0337192
0.350488
0.250828
0.300064
-0.252624
-0.321722
0.690128
)
;

boundaryField
{
    FrontBack
    {
        type            empty;
    }
    Top
    {
        type            zeroGradient;
    }
    In
    {
        type            zeroGradient;
    }
    Bottom
    {
        type            zeroGradient;
    }
    Out
    {
        type            fixedValue;
        value           uniform 0;
    }
    circle
    {
        type            zeroGradient;
    }
}


// ************************************************************************* //
