/*--------------------------------*- C++ -*----------------------------------*\
| =========                 |                                                 |
| \\      /  F ield         | OpenFOAM: The Open Source CFD Toolbox           |
|  \\    /   O peration     | Version:  2412                                  |
|   \\  /    A nd           | Website:  www.openfoam.com                      |
|    \\/     M anipulation  |                                                 |
\*---------------------------------------------------------------------------*/
FoamFile
{
    version     2.0;
    format      ascii;
    arch        "LSB;label=32;scalar=64";
    class       surfaceScalarField;
    location    "16.2";
    object      phi;
}
// * * * * * * * * * * * * * * * * * * * * * * * * * * * * * * * * * * * * * //

dimensions      [0 3 -1 0 0 0 0];

oriented        oriented;

internalField   nonuniform List<scalar> 
1171
(
-0.945441
0.945441
0.777521
-1.08848
0.310959
-0.307461
-0.758261
1.06572
0.0545595
-0.0636849
-0.27713
0.340815
-0.777521
0.09122
0.686301
0.942127
-0.215749
-0.726379
0.830657
-1.03427
0.203616
-0.357934
-0.0340733
0.392008
-0.000378384
0.606248
-0.605869
-0.50405
0.943642
-0.439592
-0.421619
1.00597
-0.175316
0.247483
0.0907431
-0.338226
0.984903
0.0210707
0.28371
-0.0362272
1.01306
-0.0281616
0.656403
-0.963864
-0.789487
0.612293
0.177194
0.334058
-0.838108
0.560013
-0.915036
0.355024
-1.08068
0.670931
0.409745
-0.645073
0.644695
0.0327517
-0.251912
0.219161
0.0289392
-0.635521
0.606582
0.468965
-0.503038
-0.841315
0.872063
-0.030748
1.0049
0.0081594
0.903802
-1.05812
0.154317
1.01854
-0.0136317
-0.7003
-0.0891869
1.23542
-0.836998
-0.398418
0.177222
-0.07241
-0.417406
0.489816
-0.273364
0.184529
0.0888349
-0.605834
-0.482646
0.958759
-0.0549562
-0.0247512
0.874432
-0.849681
0.518088
0.717328
0.533838
0.0267985
0.442166
-0.790156
-0.105225
0.895381
0.591394
0.226943
-0.818337
0.0417522
0.59824
-0.639992
-0.509914
-0.570762
-0.383249
-0.674871
0.0301158
0.243922
-0.274037
-0.944744
-0.0336891
0.978434
0.376476
0.0155322
0.849033
0.0930949
-0.606329
-0.0387443
0.0359827
-0.826138
0.127014
0.906119
-1.03313
-0.405664
0.0271762
0.378488
-0.71368
-0.231064
-0.69661
0.823624
0.641318
0.302324
-0.579071
0.996404
-0.821695
-0.174708
-0.035637
-0.082608
0.118245
-0.460373
-0.0426655
-0.310186
0.951504
-0.0164691
0.442646
-0.426177
-0.485528
1.07692
0.714768
-0.819993
0.392148
-0.0782785
-0.313869
0.753776
-0.753776
-0.92512
0.0383056
-0.315436
-0.692402
0.667651
-0.0307039
-0.142764
0.173468
0.884152
-0.0097199
1.03475
-0.807811
0.22466
-0.320354
0.0956944
0.986199
-0.137167
-0.678665
-0.0486925
0.727358
0.149072
-0.231351
0.0822791
0.799414
-1.01516
-0.442305
0.310504
0.1318
0.668936
-0.639997
0.860947
-0.39001
-0.470937
0.477698
-0.694245
0.0362108
0.658034
0.167863
0.669989
0.0466273
-0.716616
0.133009
-0.0947032
-0.512342
0.106678
0.0363152
-0.90785
0.871535
-0.544778
-0.761809
0.061509
0.501476
-0.0593093
0.275221
-0.833034
0.557813
0.424604
0.575396
0.599152
-0.56317
-0.375679
-0.0315441
0.407223
0.535941
0.217835
-0.66241
0.704163
0.0840697
0.890634
0.00435645
-0.683022
-0.765048
0.801363
0.621296
0.110559
0.361284
-0.471844
-0.155208
0.52306
0.0751801
0.879184
-0.790182
-0.0890022
0.654942
0.341462
-0.430257
0.708856
-0.598297
0.409553
0.150459
-0.0587388
-0.669857
-0.188298
0.858155
-0.12176
-0.632015
-0.612579
0.363002
0.249578
0.661777
-0.65742
0.310111
1.02144
0.013315
-0.765048
-0.114898
0.0792606
0.714768
0.78483
-0.78483
0.846341
-0.832243
-0.0140982
-0.454038
0.878642
-0.193005
-0.319337
0.763611
-0.668938
-0.0946728
-0.855794
0.185937
0.106944
-0.713273
0.819993
-0.9752
-0.177796
0.17549
0.00230531
0.114831
-0.980788
0.865957
0.549923
-0.0160856
-0.289059
0.594911
-0.305852
-0.645272
0.760103
-0.159919
0.724371
-0.841621
0.117251
1.12397
-0.655362
-0.468608
0.726092
-0.0707284
-0.0056802
0.00589065
-0.000210449
-0.800553
-0.910687
0.152426
-0.692402
0.575315
-0.548139
0.0474525
0.694991
-0.742444
0.779146
0.166294
0.491286
0.508714
-0.0421873
-0.672385
0.714572
0.874447
0.00473699
-0.726092
0.801363
0.180185
-0.432097
-0.0280199
0.0110078
0.0170121
0.674075
-0.434419
-0.239657
0.686301
-0.03341
-0.186316
0.559508
0.114567
-0.0140629
0.00114432
0.0129186
0.00485575
-0.010536
0.125363
-0.203641
-0.944749
0.0406518
-0.143386
-0.0524328
0.128753
0.766735
0.742362
-0.166966
0.486934
-0.439481
-0.16239
0.38705
0.631957
0.0543442
0.228387
-1.06063
-0.9752
0.317166
0.667651
-0.158848
0.0160843
-0.807387
0.990809
-0.183422
0.482569
-0.104081
0.800806
0.305755
0.260716
0.022994
-0.680994
0.680994
0.225299
0.670081
-0.0127447
0.455391
0.477071
0.00931386
-0.0373337
0.551669
-0.00174619
-0.645272
0.572166
0.191445
0.00307376
0.0028169
-0.631957
0.168316
0.822493
0.00764325
-0.716776
0.709133
0.760101
-0.822031
0.0619298
-0.779146
-0.0314735
0.0439719
-0.0124985
0.0849636
-0.122375
-0.104918
0.227293
-0.00641254
-0.00765038
0.732888
-0.725245
0.898602
0.16712
-0.405995
-0.521668
0.927663
-0.00159099
0.00159099
0.143946
0.439682
0.653412
-1.09309
-0.196714
-0.548764
0.745478
-0.0199721
0.19344
0.382647
-0.233575
1.07333
-0.633648
0.768082
1.00515
-0.351741
0.189642
0.760103
0.584786
0.227618
0.644445
-0.632015
0.319006
-0.0245704
-0.0197539
0.0443244
0.887651
-0.0115267
-0.876125
-0.556625
0.542993
0.545962
-0.556625
-0.584786
0.542993
0.00652549
0.983991
-0.0853892
-0.535941
0.463767
0.0721736
0.523769
0.609968
-1.13374
0.49442
0.578911
0.630947
0.486692
-1.11764
0.483483
0.52167
0.463767
-0.494357
-0.524088
-0.615622
-0.542253
-0.14663
-0.00513432
0.00513432
0.599882
0.559708
-1.10196
0.734781
-0.373497
-1.03709
0.381732
-0.684435
0.453371
-0.0162989
-0.946074
0.962373
0.453303
-0.0198989
0.90755
-1.10261
-0.974384
0.0720036
0.902381
0.272588
-0.100091
-0.172497
0.743135
-0.798091
0.993233
-0.979465
-0.0137683
-0.0205627
-0.769619
-0.147249
0.868402
-0.721153
-0.991684
0.971121
-0.654582
0.613933
0.0406492
-0.829602
0.105862
0.72374
0.00313864
-0.00472962
0.42568
0.109372
-0.965283
0.855911
-0.768949
0.726762
1.02569
0.0967191
-1.12241
0.05131
0.00354849
0.403674
-0.359935
0.0395811
0.932427
-0.948726
-0.662483
-0.812766
0.0431467
-0.149325
-0.983091
0.00362643
0.537332
-0.0503977
-0.0288765
0.301465
-0.627274
0.733137
0.470937
-0.965973
-0.894965
0.0890262
-0.103877
0.681692
-0.577815
-0.0207181
-0.766359
0.578918
0.181183
-0.0544174
0.961968
1.04313
0.957124
-0.953498
0.0454213
-0.0454213
-0.0804886
-0.1868
0.0867089
0.342107
-0.0249409
0.227306
0.94125
0.00746554
-0.0138781
0.658593
0.341407
0.797041
-0.605834
-0.753467
-0.589342
-0.512245
0.512245
-0.207923
-0.107512
0.656247
-0.954302
0.298054
-0.498998
-0.516204
0.348525
-1.0234
-0.975799
0.96203
-0.698587
0.741734
0.667928
0.194038
-0.861966
-0.548693
-0.177584
0.852561
-0.674977
0.0345492
0.00482263
0.00246018
-0.0072828
0.0397189
-0.226519
1.00477
0.643259
-0.341202
-0.302058
0.470762
0.748677
-0.523378
0.0125639
-0.285928
0.1129
0.744798
-0.857698
-0.355468
-0.0647863
0.140896
-0.996633
0.120508
-0.760264
0.0976359
0.753507
-0.851143
-0.890618
0.130355
0.714766
-0.779552
0.233955
-0.35633
-0.498204
-0.050489
0.368728
0.73937
-0.0305142
-0.000334211
0.000334211
-0.00399
-0.000293831
-0.0242766
-0.0153685
0.022834
-0.548601
0.335388
0.757257
-0.846602
0.0893446
-0.728309
0.825945
0.791916
-0.0771493
-0.713572
-0.177047
-1.11462
0.020804
0.0246174
-0.435701
-0.860821
-0.844109
0.445691
-0.214566
0.240756
-0.0261898
-0.52246
0.0867589
0.522707
0.713153
-0.0384554
-0.0139775
1.04712
0.503734
0.207083
-0.710817
-0.407663
-0.114797
-0.00402337
0.008846
0.714796
-0.903093
0.00600805
-0.00600805
-0.714608
0.725318
-0.0107095
-0.436539
-0.100974
-0.704204
0.0710278
0.643544
-0.0514456
-0.881788
-0.157726
0.202135
-0.0444092
0.824879
-0.735535
0.342973
0.261704
-0.604677
-0.146025
-0.724961
-0.126182
-0.210874
-0.0866979
0.472127
-0.514792
0.177776
0.730617
-0.908393
0.477698
-0.150058
-0.0645078
0.00551332
-0.0922113
0.596076
-0.0941493
-0.501927
-0.284548
0.305513
-0.020965
0.587692
0.147089
0.0669547
-0.311677
0.169741
0.141936
-0.125429
0.0105312
-0.294015
0.119915
0.00469039
-0.124606
0.88859
-0.334349
-0.10219
0.555508
0.272198
-0.6134
0.43004
-0.43004
-0.226656
-0.42918
-0.233153
-0.42918
-0.676722
-0.85012
0.181182
-0.24764
0.735923
0.0479373
0.163116
0.576254
0.108934
0.116829
0.0107724
-0.127601
-0.0455052
0.721772
-1.03322
0.511554
0.00500115
0.0589193
-0.0639205
-0.752126
-0.177698
-0.571841
0.778924
-0.526578
0.0306822
-0.122893
-0.33881
-0.0804822
0.0804822
0.043809
0.000162969
0.137633
0.251287
-0.750808
0.178967
-0.0147528
0.472384
0.527616
0.793716
0.018678
0.0165353
-0.0352132
-0.296369
-0.585418
-0.52364
0.113861
-0.118699
0.00483826
-0.134714
-0.413487
-0.0654068
0.708951
-0.588867
-0.163259
-0.0519258
0.0123876
0.137002
-0.352723
-0.197151
-0.180273
-0.0233687
-0.476867
0.430211
0.0466565
-0.0132287
0.294207
-0.864968
-0.539423
0.663446
-0.85937
0.713345
0.458939
-0.0319078
0.0575975
-0.0256897
0.0904104
-0.634617
-0.00635641
0.640974
-0.894335
0.645146
-0.725635
-0.0711914
0.00664603
-0.00664603
-0.299113
0.441887
-0.0382122
0.000776534
0.0179014
0.590782
0.58154
-0.670543
0.0117843
0.0031142
-0.00344841
0.0042671
-0.0042671
-0.504621
0.65171
0.0145312
-0.0145312
-0.779015
-0.00793747
0.0110761
-0.508863
0.68783
0.583596
-0.594306
0.0685052
-0.0685052
-0.00242558
-0.0349082
0.0131672
-1.04786
0.579254
-0.530811
-0.00472962
0.604507
0.00685441
-0.611361
-0.709894
0.121027
-0.316081
-0.0133459
0.329427
-0.0204403
-0.0180151
-0.606859
-0.0277586
0.0246174
0.00576958
0.000238473
-0.00298514
0.00298514
-0.394134
0.269528
-0.455022
0.133711
0.663331
-0.134563
0.00279439
-0.00279439
0.508595
-0.0512579
0.00823702
0.0179713
-0.000462526
0.605442
-0.656699
-0.753856
0.651666
-0.088924
0.325643
0.768638
-0.00399
-0.0925089
0.0953258
-0.644603
0.552649
-0.272219
-0.105387
-0.0279406
-0.0258393
0.00116676
0.475325
-0.0857432
-0.416183
0.703625
0.000867226
0.00527979
-0.00527979
-0.18827
-0.142847
-0.571098
0.619035
-0.136826
0.509168
-0.206681
0.863085
0.852126
0.00576958
-0.762111
0.66581
0.0216583
-0.0303927
0.00873442
0.638437
0.0830654
-0.0120625
0.0666803
-0.0546177
0.00907741
-0.00907741
-0.74286
0.0230839
-0.0429297
0.060901
-0.0862132
0.0862132
0.0031142
-0.00119562
0.74511
0.0773826
-0.317635
-0.0958516
-0.521828
-0.0302675
-0.0667232
0.0667232
-0.0376388
0.0807193
-0.0807193
0.0266995
-0.0266995
-0.356949
-0.0733083
0.240458
0.070046
0.0337269
-0.72751
-0.059383
0.160515
0.01967
-0.242912
0.0807173
-0.0807173
-0.467963
-0.0468293
0.230117
-0.010956
0.00278444
-0.658526
0.652
0.018193
-0.0558318
0.0312383
-0.0661465
-0.0122141
-0.156139
0.168353
-0.149654
-0.206677
-0.0812582
0.0812582
0.0547322
-0.0547322
-0.0287464
-0.0939554
0.122702
-0.0238396
-0.188854
-0.0045015
0.00105309
-0.259048
0.528576
-0.02575
0.428781
0.00774807
0.00517053
-0.0510812
0.0510812
-0.731991
0.317432
-0.12779
-0.208313
-0.0230377
-0.0172478
0.0200323
0.196244
0.0310497
-0.00188489
0.00142237
0.0841647
0.0296963
0.0556036
0.104911
-0.0168829
0.00290539
-0.00072826
0.00595118
0.00541896
0.00407218
-0.00949113
-0.00216559
0.0086153
0.0278034
-0.0278034
0.0494325
-0.0424083
0.0424083
-0.190194
0.0111217
0.0296128
-0.0756227
0.0176221
0.0769429
-0.0769429
0.2429
-0.237047
0.0873932
-0.0668935
-0.170154
-0.0157372
0.0157372
0.40756
0.250474
-0.519339
-0.0804778
-0.0382215
0.541271
0.00739875
-0.0614592
-0.462421
0.0913202
-0.152782
0.169724
-0.0169429
-0.0472466
0.0472466
0.859958
-0.591095
-0.00752924
0.00536364
-0.00573095
-0.28521
-2.01292e-06
0.00495501
-0.0432987
-0.628765
0.568658
-0.665896
0.014535
0.184619
0.015642
0.0243817
-0.158513
-0.334789
0.259166
-0.0556752
0.0269288
0.172198
0.133316
0.197038
0.264098
-0.248456
0.00565743
-0.113012
-0.221659
0.0677414
-0.0121378
0.16069
-0.136308
-0.0682478
0.152413
-0.404192
0.121511
-0.103889
0.0584687
-0.474652
0.174679
0.17774
-0.245988
0.00673041
-0.177106
0.177104
0.00377437
0.148638
-0.0278771
0.0495358
0.459059
0.0120662
0.0178992
-0.00386173
0.0350617
-0.238602
-0.202989
0.590928
0.168556
0.0615608
0.0770736
-0.0638352
0.0630589
-0.0543245
-0.0302684
0.166177
-0.151642
0.0190659
-0.00647615
-0.104517
-0.0284674
0.0219713
0.25196
-0.00348139
-0.00308754
-0.310757
-0.00689338
0.217321
0.139906
0.177526
0.056801
0.0969518
0.0520277
0.538755
-0.0102194
0.104052
0.0424062
0.0660986
-0.108505
-0.268865
-0.196707
0.0265537
-0.222692
0.284203
)
;

boundaryField
{
    FrontBack
    {
        type            empty;
    }
    Top
    {
        type            calculated;
        value           uniform 0;
    }
    In
    {
        type            calculated;
        value           uniform -1;
    }
    Bottom
    {
        type            calculated;
        value           uniform 0;
    }
    Out
    {
        type            calculated;
        value           nonuniform List<scalar> 10(1.12537 1.01813 1.13971 1.06239 1.09666 1.06392 1.15959 1.0152 0.656696 0.662333);
    }
    circle
    {
        type            calculated;
        value           uniform 0;
    }
}


// ************************************************************************* //
