/*--------------------------------*- C++ -*----------------------------------*\
| =========                 |                                                 |
| \\      /  F ield         | OpenFOAM: The Open Source CFD Toolbox           |
|  \\    /   O peration     | Version:  2412                                  |
|   \\  /    A nd           | Website:  www.openfoam.com                      |
|    \\/     M anipulation  |                                                 |
\*---------------------------------------------------------------------------*/
FoamFile
{
    version     2.0;
    format      ascii;
    arch        "LSB;label=32;scalar=64";
    class       surfaceScalarField;
    location    "1609";
    object      phi;
}
// * * * * * * * * * * * * * * * * * * * * * * * * * * * * * * * * * * * * * //

dimensions      [0 3 -1 0 0 0 0];

oriented        oriented;

internalField   nonuniform List<scalar> 
1171
(
-0.9279170135445689
0.9279170135111813
0.7874422411459945
-1.099257184917197
0.3118149438511831
-0.1897343974363708
-0.7653513466424363
0.9550857441121966
0.07208297948540709
-0.1171115711395073
-0.212404790849827
0.3295163617564442
-0.787442238114584
0.06945614081132542
0.7179860973117492
0.8115794380860318
-0.177997400405302
-0.6335820377015615
0.8741511281989537
-1.044228943659136
0.1700778154878914
-0.2854773626733001
-0.09768294017368867
0.3831603030938129
-0.03635958884467033
0.5489997397783443
-0.5126401509906207
-0.5052207027554829
0.8253810984177101
-0.3201603956992718
-0.4025889282007862
1.045898023770566
-0.1717468970003858
0.392161637998835
0.04952630649294724
-0.4416879450694183
1.045931655143079
-3.363169708707806e-05
0.4434986340829198
-0.05133699849643265
1.056518659626258
-0.01058700965711634
0.5798777714465339
-0.7696121626296297
-0.7241802918658337
0.556634135435727
0.1675461563849057
0.215614665105671
-0.7208353728583321
0.5502096038040468
-0.9227043785013879
0.3724947741904109
-1.09420180598371
0.6865706602492907
0.4076311458189877
-0.5955945780411018
0.5592349952927638
0.01752904509150148
-0.2561705361365188
0.2386414902909936
-0.02274492026667918
-0.522597064169018
0.5453419846103081
0.4004368611838121
-0.498119795085352
-0.9189544649037441
0.9416179866120641
-0.02266352170666832
1.067630101445082
-0.0111114443259124
0.9348470804359544
-1.11665257492439
0.1818054944517395
1.067075982194157
0.0005541140848249208
-0.6644413567229134
-0.05973893522509111
1.262297802376591
-0.8642681247045586
-0.3980296776675368
0.14812151222075
-0.1097808607666094
-0.3260016512621133
0.4357825122293237
-0.2855470356209625
0.1916636593807481
0.09388337657813071
-0.5836869055653606
-0.5155702803115589
1.014046415463874
-0.0791993351422946
0.009895747369583425
0.8254895890625535
-0.8353853364173411
0.5717831872373905
0.6905146171601951
0.4392188847380961
-0.03066441453826965
0.4311012761509844
-0.808013990429976
-0.1025107577543289
0.910524748141658
0.502070800690367
0.2538885990326339
-0.7559593997423345
0.007000841467031887
0.5280951889106014
-0.5350960305928567
-0.4899701382309986
-0.6042316716242351
-0.422756020498872
-0.6938965537561905
-0.0271103515302495
0.2704655936912556
-0.2433552416449813
-0.9247175567762348
-0.005073524964181283
0.9297910817627476
0.3087204980790078
0.07443981313391514
0.7616909888329436
0.04988844727189353
-0.5330563674106312
-0.06253820741314894
0.04601640955734715
-0.8540304020298723
0.07543039621443727
0.8634297922858813
-0.9388601885006435
-0.3468326137614516
-0.04115889261996963
0.3879915063649213
-0.6820317473613046
-0.2426858072258964
-0.6341033611342568
0.7095337555178681
0.6140276757592421
0.2113534180923417
-0.543304557375679
0.9456354513779317
-0.7789835506768642
-0.1666519006923323
0.01222003702726184
-0.01106228317657496
-0.001157754358232816
-0.4034401153266065
-0.09467967886415253
-0.2408620647147886
0.8548897352106033
0.0476907792529255
0.3349115250366365
-0.3826023040221594
-0.4610771416587938
0.9631479408905971
0.6804354288872148
-0.7829461895393585
0.320238448035582
-0.01669701933824639
-0.3035414291431264
0.9307354522932961
-0.9307354522847816
-0.7812375452278645
0.1107737211590372
-0.3231785071634268
-0.7499358463909749
0.759831594797334
-0.09027589820153233
-0.1434246529158654
0.2337005514377115
0.8649376820974879
-0.03944809160616039
1.054340450099799
-0.8004518545025076
0.1865610168645232
-0.3160866534339934
0.1295256365190098
0.8587174168399065
-0.09702642781053786
-0.6114941944546721
-0.03900722196350766
0.6505014164304008
0.1234945187378757
-0.2306444739723778
0.1071499545098682
0.8056220744137634
-0.9836194759143112
-0.4346781566292556
0.3293207359241297
0.1053574204681931
0.5327043235925609
-0.5554492466702982
1.021907680863386
-0.4561902612955436
-0.5657174195733046
0.5991516589706477
-0.7193585702227188
0.06669517954101563
0.6526633909306937
0.1027580157354175
0.569649376277469
0.0553824359069655
-0.6250318122626672
0.1944442331207189
-0.08367050898759906
-0.4924505201385167
0.1456179048204778
0.05023682032552314
-0.8864894411431838
0.8362526207841956
-0.4730707537282751
-0.7132759592974789
0.04883460486356439
0.4372760223408597
-0.006174742491733778
0.2999456750075561
-0.8552570512622216
0.5553113761069836
0.4157480489831689
0.5842519509909916
0.5604799790187655
-0.5144635746486497
-0.3679292334611172
0.03823561953878451
0.3296936153966743
0.6813028055780079
0.2494326474317643
-0.566282022453037
0.5732828641338575
0.1112743706874435
0.8750782132542223
0.01017056478034031
-0.6216647589534389
-0.7491035663910337
0.7993403868681727
0.5306421565966959
0.06984002462781722
0.3018203021982592
-0.3716603269219044
-0.1674597464856923
0.4440849182400952
0.08401027594426698
0.8753522093074412
-0.8042925527599785
-0.07105965660525493
0.6352917179331981
0.310343733877291
-0.4305504659613552
0.573788341791759
-0.5039483168422171
0.4171491151846794
0.1330604847097957
-0.04674002916048074
-0.5939742504119179
-0.1381185500368161
0.7320928004662318
-0.1497782949547589
-0.7809571545525431
-0.6109903231032138
0.3604216896601378
0.2505686341116
0.6219474730671053
-0.611776909133332
0.2392404652242066
1.011351832788889
0.04298861783973291
-0.7491035666961957
0.2339651731717815
-0.221745129431439
0.6804354272665487
0.8017493991029998
-0.8017493990747107
0.8376548382776722
-0.8331305056254285
-0.004524332701924474
-0.4453623771983443
0.8611104269565708
-0.1472981281469594
-0.3451523898817324
0.7347329045431659
-0.6685220534967478
-0.06621085100076914
-0.7351066847106118
0.1411324362326268
0.1389553569936177
-0.6720117239008612
0.7829461955397615
-0.9504059419871914
-0.3687018430161337
0.2904487913786162
0.07825305215362027
0.1458253824366177
-1.010029184382059
0.864203801928189
0.4812292963065615
-0.04201041151972759
-0.3081117368017224
0.5863609311674174
-0.2782491944374337
-0.7385746479662066
0.884400032316166
-0.1570360775895684
0.7312010040234939
-0.8428716616812147
0.1116706575810842
0.9760970458154733
-0.5395570702432297
-0.436539975546176
0.7550093690133125
-0.0650306202819855
-0.0323309152128786
0.1849398387155545
-0.1526089230701873
-0.7758141663620326
-0.8412423029835538
0.07589096277560613
-0.7499358465520973
0.5136486775164126
-0.5548075686237537
0.09917963140420979
0.7182868897457905
-0.8174665212366674
0.753627905326001
0.1742891001349823
0.5029219589629801
0.4970780410510581
-0.0513059797784504
-0.6124495819475947
0.6637555615979662
0.883692598437218
-0.008340391989689472
-0.7550093690218416
0.7993403855088849
0.1914490947759581
-0.447619633249189
0.01519762358084105
0.003663653804007552
-0.01886127964302075
0.588539834528883
-0.4376156969794676
-0.1509241377794247
0.7179860949715706
0.0102459492353501
-0.1100412974642983
0.4377670335884925
0.1507727989998473
-0.01649310940514204
-0.006243200448713606
0.02273630992662744
-0.03096215643279907
-0.001368753450891502
0.2451287515298034
-0.2618257816658575
-0.9587854774290574
0.001322652444056684
-0.1594450919144342
-0.1235730935365335
0.09440574766836447
0.7222858722774604
0.728994902981434
-0.1447429525734005
0.6739225055490266
-0.5747428712856093
-0.2117787095291615
0.3983397270252217
0.6955860266534541
0.02240006832820736
0.2417975460854145
-1.074928054302196
-0.9504059437864697
0.3025457511574485
0.7598315953000414
-0.2090995377475235
0.06567488208581949
-0.7236085241010217
0.9111361028143574
-0.1875275787386037
0.4155324345738378
-0.02754092365790069
0.771222000166923
0.2806414243528565
0.3751960835604957
0.0683025615313313
-0.6587030300563269
0.6587030300700384
0.2146405849859162
0.6958841593757128
-0.05620488971577101
0.3911164159236294
0.3795776213167032
-0.0153625467958697
0.03056017613091218
0.448565875364302
0.03266342334310098
-0.7385746472582745
0.5340166218396247
0.2007162807189309
0.3017162269066649
-0.1167763931797972
-0.6955860272941117
0.1800251428447602
0.7311109607112564
-0.01015830781660963
-0.8136778557090851
0.8238361635411509
0.6963717019772266
-0.7920234636707822
0.09565176167572723
-0.7536279015931283
-0.1499834534086359
0.2114607503854095
-0.06147729642319384
0.07729562084638604
-0.1790854243750932
-0.1120318645937086
0.2911172885413997
-0.009281779354464859
-0.007211324832378728
0.7062805476028647
-0.7164388489081994
0.8864220700560158
0.068663680112818
-0.3099500306253413
-0.5232686342267711
0.8332186649853623
0.1028886604369508
-0.1028886617310486
0.3286844074362194
0.4785198174733188
0.6082943188101666
-1.086814136355031
-0.1941141725043358
-0.585538421766552
0.7796525942639032
0.01235659106765811
0.2213439547291277
0.3765371860675448
-0.2530426792075774
1.015109680833882
-0.5365898659834784
0.6673621572495335
0.9923226033603512
-0.3840282869983638
0.2292390625179455
0.8844000345854551
0.7126531353312785
0.2138286232485526
0.7277893598728654
-0.7809571540081369
0.3412969651288293
-0.28434195578744
0.2586975718245055
0.02564438444497697
0.8518687049144079
-0.009295624166986614
-0.8425730808790439
-0.7020661204947866
0.7026202321954915
0.5546376223739007
-0.7020661226091807
-0.7126531353315645
0.7026202294641635
-0.03357770442138725
0.9062026631298642
-0.0197805898898774
-0.6813028142767601
0.6122445239774431
0.06905829030092991
0.5387096588182936
0.5385487536637552
-1.077258412483665
0.4884444019414511
0.526665278274836
0.548000084010277
0.4581624663742588
-1.00616255042195
0.4946135707068782
0.4977090319214591
0.6122445300959827
-0.5257030091314675
-0.4665831906134367
-0.5558259986262721
-0.5150217622237108
-0.1245847660905666
-0.01277725961037346
0.01277726019263606
0.5095138568675989
0.5243788827812186
-1.039400645084779
0.5728676267492896
-0.2710473219782382
-0.8830986975321409
0.3435416280258878
-0.6326930168552359
0.390007210135119
-0.0002138107511088215
-0.8276729917749442
0.8278868025397553
0.4208831716408805
-0.02435267910888761
0.876221386397258
-0.9440533952634355
-0.8345753244622885
0.05724729484830722
0.7773280296538335
0.5513929922990072
-0.4367867736932977
-0.1146062185555227
0.6501105450503519
-0.7293098796839217
0.8850614980393604
-0.82753434287843
-0.05752715503332261
-0.01375819496088734
-0.7905343601803155
-0.1111597763674633
0.7150936187554887
-0.6039338423883461
-0.9411275994741892
0.9273694041206957
-0.7352369051179173
0.688403471962422
0.04683343316642763
-0.8005695267138567
0.02776580640422535
0.7728037203712689
0.06182717616970109
0.04106148723757423
0.433006160500386
0.05899191081871044
-0.8497305953654251
0.7907386844669476
-0.6451234692302406
0.5938174855028132
0.8896739331012964
0.07309318318343702
-0.9627671163412725
0.0550986105752982
-0.0501998070914367
0.3798934168647917
-0.3816812064248198
0.06559455073911387
0.8406449309691568
-0.8408587459184008
-0.7319058415877698
-0.810971972456636
0.02043761180176125
-0.1683646650393114
-0.8477651177121904
0.02023076875131715
0.6235662443463296
0.0503562627448005
0.017324795878174
0.5340681872239832
-0.8151103589391291
0.8428761684674069
0.5657174209057744
-0.852025676886205
-0.8680344151010834
0.03816825071565912
-0.03238859861930798
0.8341231218996291
-0.8017345232617163
-0.01987832449725487
-0.7642944368608596
0.5442912740357083
0.1520804312653946
-0.01901276544821855
0.895234150793014
0.9846166999265835
0.860842053596496
-0.8406112885286324
0.1476281939354817
-0.1476281950444417
-0.1176822142113066
-0.4655596528392273
0.02877287516972146
0.2713279376583523
0.03121781371254963
0.3854420246073098
0.8753558283246908
0.006637581675978882
-0.01591935060879493
0.658599943517903
0.341400056495595
0.7835633838459389
-0.5836869064278165
-0.778051783062963
-0.8110301418098944
-0.6799567034167474
0.6799567034170576
-0.1681665207470086
-0.1550119807904096
0.601850501334369
-0.8113064967892131
0.2094559954686136
-0.4939961805147261
-0.5688508463781982
0.2780484206901608
-0.9719449748493975
-0.8987421603087746
0.8412149970692129
-0.8194898337594243
0.8399274460897159
0.6484826421793356
0.1344743631889763
-0.7829570053765685
-0.7641967079553593
-0.1463425298381018
0.7253673543435023
-0.5790248245107109
0.02338633463428617
-0.01270562338435223
0.01592440540472298
-0.003218781358507419
-0.3526752348350286
-0.1128844162621596
0.8798989249467206
0.7390063917375158
-0.2387164364633701
-0.500289955497995
0.6244001757051004
0.6856717498038067
-0.471031165519727
-0.0002502187438471679
-0.2852968190051794
0.0137301953567658
0.7473137512680943
-0.7610439465253945
-0.3234623300376263
-0.07184060492037118
0.07603297849577202
-0.9669065757187967
0.1243334979120651
-0.6768321294247031
0.0542817207410544
0.6401377270898485
-0.6944194478227363
-0.7565207371326664
0.07968860770178351
0.5894807578776333
-0.6613213627436347
0.1563378260169679
-0.3354232529358386
-0.7724361218769457
0.00823941390716749
0.371140286877021
0.60004919380665
-0.02626084929355591
0.0214720366813652
-0.02147203755947635
-0.01902044805365445
-0.05232396955359858
-0.2320179724185827
0.02166983090576598
-0.01503227282720163
-0.7220798607718083
0.2793992579144283
0.6784795313806954
-0.6900261691818709
0.01154663792054281
-0.5965269117247465
0.6508086296848101
0.6544941639693856
-0.06501340620966664
-0.6309966279827176
-0.1255241108902144
-1.049822177813975
0.0112273712417488
0.1364008266129088
-0.7083496661581961
-0.742156406095938
-0.7639668534531118
0.3659371773801904
-0.4065214978045951
0.4668865192786586
-0.06036502136753207
-0.6727992988807697
-0.03555036721617737
0.4996643109486303
0.7306829232888936
-0.2349428042728114
0.1113697116353183
0.9586671639855699
0.4462425695540418
0.1323364904831509
-0.5785790600728528
-0.6773586794365546
0.004559382360821779
-0.04448504856791432
0.03177940767708048
0.6375246828471669
-0.7756432327271396
-0.002728694741783016
0.002728694493428573
-0.600065050444644
0.6496280917321224
-0.0495630412895493
-0.6600338841923071
-0.1138563038854305
-0.6718045353218409
0.05447118417953031
0.6092843732600681
-0.1376268729214535
-0.8181470648235926
-0.5662171256344039
0.5721760476280886
-0.005958921632331959
0.6308644659909078
-0.6193178298817771
0.3223492795992178
0.2136517743464359
-0.5360010539505353
-0.1046317227323827
-0.6026341330990771
-0.09178531475873013
-0.1538224766189911
-0.5117459482921298
0.4043491964880023
-0.4990288771213764
0.126015133590263
0.6787559237401245
-0.8047710573229656
0.599151658967212
-0.3744002629510224
-0.03212124055632926
0.06046657453277998
-0.5722125238452056
0.5514294271651564
-0.04034858530834722
-0.511080841977018
-0.312808426698706
0.3054553247601635
0.007353102661946208
0.4508217715107103
0.1220458537021499
0.05186003143773377
-0.3162706064288522
0.1572705165553733
0.1590000900111222
0.2525161611435774
-0.01855099480057482
-0.2966287960181791
-0.3129827397377394
0.3586341521314388
-0.0456514105203382
0.7916956539773509
-0.6290269035951909
-0.03100698070779383
0.4994960629435312
0.2852720547353784
-0.523988492961922
0.5774424222862458
-0.5774424222860892
-0.2897874329196252
-0.586515928347323
-0.2955271235351925
-0.5865159284814939
-0.5968299357392148
-0.8384780886042396
0.1699560341936484
-0.6002540236635686
0.8212158390763941
-0.003378142232706154
0.1187653567809124
0.481283838341903
0.09674852094748394
0.185636445167839
-0.03620494547624318
-0.1494314990626255
-0.0280779827473432
0.5905088524472154
-0.9425491528609046
0.4192805155267242
-0.004831190042546842
0.0001994836793058816
0.00463170656949472
-0.6440382311001652
-0.1321233357261722
-0.4661488838340109
0.598485376938578
-0.5035577470150951
-0.3156474677787467
-0.2565650429198798
-0.2723236166429191
-0.1116051504720058
0.1116051508789531
0.1535834755048727
0.05787727667429328
0.1968638193921668
0.4483355241743848
-0.5695871289162076
0.1034382420565623
0.2538663784001955
0.4663052917796753
0.5336947086513608
0.6456775139501186
0.08169995530566376
0.002728683906041739
-0.08442863908897967
-0.2770623992669211
-0.5410846655736794
-0.5454292880333234
0.1146574986174732
-0.1265201293413553
0.01186263102520461
-0.1057706665712445
-0.3855009763894282
-0.04915059814265654
0.6584349852095859
-0.4994511455631567
-0.1445870855183826
-0.3267097430920783
0.2863536834742604
0.1281589552696783
-0.6102932362161416
-0.2043714755666942
-0.2627006250648942
0.0008748593081855892
-0.4209461249219733
0.3222979561531812
0.09864816891806148
-0.0899709123955289
0.2917029117693707
-0.8959345837692418
-0.4574856533411249
0.6303569985912797
-0.7731616733517148
0.6685299506484907
0.3409166052396196
-0.1256537097459681
0.2246691826068917
-0.09901547333340839
0.03149079532590505
-0.5861786908251007
0.02883063110284455
0.5573480595616009
-0.9006389578340984
0.5475533198260414
-0.6652355340456957
-0.1013341594924256
0.1092102683101362
-0.1092102700174963
-0.3165208281686619
0.3598219651803645
0.02007144791372957
0.02129554149825114
0.06040439356626745
0.5043813086816107
0.6675336258519811
-0.7385932843515827
0.0249591927282325
0.02007478706501136
0.001397238758682082
-0.006349700392687534
0.006349700928929653
-0.4099069523356369
0.5319528038514346
0.01563067608171343
-0.0156306760080611
-0.7926326806875833
-0.06009816886823966
0.121925337480607
-0.4512346182294165
0.5546728578997311
0.4498346354057171
-0.4993976740443473
0.1500811447271836
-0.1500811456048301
0.0435069734591769
-0.01294678815899255
-0.04135665826838226
-0.9762763077851526
0.5397363336260245
-0.4702719779861643
0.04106148692235066
0.5150843207936546
0.03050285469908577
-0.5455871756239667
-0.6162940292716446
0.1168428837332887
-0.3293333437187729
0.01359511351057383
0.3157382296443387
-0.1544583366884012
-0.0804844810447635
-0.5409306863454869
-0.04524800069800796
0.1364008281098606
-0.04121470464439377
0.03848600789833265
0.0815314847236433
-0.08153148284826436
-0.5290537139527325
0.4834022971680109
-0.4147638461371935
0.1613012260137476
0.6222621578598632
-0.09729522136082901
-0.005547622616592246
0.005547622609856847
0.5330004630538987
-0.07622504520223236
0.006321603924356669
0.02719056042889939
0.03471180024353943
0.6893075705196922
-0.7655326157904863
-0.6618477925627168
0.6308408125146776
-0.1104499965161439
0.3136802747932457
0.7456132292959886
-0.0190204472813994
-0.265503010824612
0.1487266288156611
-0.7446195542329909
0.4838495151396254
-0.4249297111633032
-0.1012097049304361
0.003360587940638808
-0.01465530015832914
0.02439853707758458
0.4122410470516146
-0.1216232340631463
-0.3894576077385228
0.629081859532535
0.01912693527157797
0.009092165081236708
-0.009092165153320538
-0.354328802578578
-0.0807181888195088
-0.5603894724224052
0.5570113300886773
-0.2376855743775017
0.464737704126659
-0.1505890508360671
0.7304668255261709
0.6701974580182352
-0.04121470543519095
-0.6166105242395878
0.5601561606882974
0.282187156983197
-0.2780887387731894
-0.00409841744019599
0.5408699017261295
0.0934407731453117
-0.03875994521974454
0.1965862220744022
-0.1578262765652932
0.1202914314206039
-0.1202914297045729
-0.8586382781578713
0.002452947870815101
-0.1131933080210104
0.1403838676756538
-0.1316457833430426
0.1316457839404073
0.02007479309815324
-0.02456808071896242
0.6707809363939067
0.06033002451632342
-0.3228054202014133
-0.06269555601743261
-0.4712954405003186
-0.0445225863200911
-0.1514503710716933
0.151450371958567
-0.04092166362089655
0.1435420673708801
-0.143542068121257
0.1365575497768904
-0.1365575484901229
-0.3160533295550899
-0.1144971363735153
0.2261705791746124
0.1031501561104416
0.03480210908110908
-0.8212301325388617
-0.1977250473377724
0.1700213588005693
0.02142773044370743
-0.264608290911766
0.126087400955736
-0.126087401614907
-0.4142730083647923
-0.08475586631338014
0.2359612049849287
0.002680281193795189
0.04031678316025372
-0.5444784764887408
0.5780561809192303
-0.02906294275401895
-0.01185872012390953
-0.02523050190538591
0.01228370265069105
0.006539062089050274
-0.1845845905013319
0.1780455284073943
-0.1077599909788921
-0.2276632629019378
-0.1445171671088137
0.1445171678864647
0.07253055156419749
-0.07253055118831322
-0.01907764519274849
-0.1086065068358442
0.1276841515602159
0.235016691563267
-0.1832827888939781
-0.02174039692582948
0.0231376300696348
-0.129772075416576
0.6131743748564872
-0.0390745999016812
0.4249007874758143
-0.04132261470653138
0.06405891060059316
-0.1532614290787656
0.1532614301694977
-0.6364048979341745
0.3083482471758797
-0.07910918509685881
-0.234303675858846
0.003659198206054364
-0.1221023496382541
0.1624191333607389
0.1943131481461918
0.09680413556943138
0.09515984036729312
-0.06044804013664214
0.07303147521324559
0.04162602457989696
0.06409513616578263
0.1059262258984022
-0.09938360127942607
0.2107533317242331
0.01182086188827021
-0.114415870479662
-0.1018896643216872
0.09663861505704649
0.005251048470669159
0.01098262658037663
-0.02219568135395396
0.03744558139304585
-0.03744558133360578
0.07448387206241737
-0.05521590680951852
0.05521590700589599
-0.2244106889243131
-0.05035695778463684
0.0117608914560677
-0.10316276081587
0.01626611988705626
0.1087045591818266
-0.1087045596083796
0.2929613156715265
-0.2709616938533204
0.1632016994706652
-0.05048747899257262
-0.2204742154435752
-0.01698573916756004
0.0169857389243393
0.3674689199867298
0.2851944643483746
-0.527832039176786
-0.09393797602623896
-0.03258215143017497
0.5287701429174155
0.2097861779900433
-0.1686988739515783
-0.3814973264917109
0.07659628485070821
-0.147354882317075
0.1869717237189177
-0.039616841179096
-0.06707854667182331
0.06707854638303601
0.8222095141462257
-0.5603719198092386
-0.002907606091002448
0.01389023288585976
-0.02004063257654528
-0.2871353189437909
-0.01745466914248082
-0.0128713797962309
-0.1320501666489384
-0.5722408705432896
0.5560513076981818
-0.5685863227597028
-0.006933205531153381
0.09908770448583727
-0.001811058168835235
0.01670388041792287
-0.1673955144156671
-0.336304853603732
0.2331420926907656
-0.05416262078156329
0.03508497511921462
0.1321508311933208
0.1733044939264936
0.3409194385771178
0.2761652096581924
-0.2779762682045535
-0.06340365566629778
-0.1549844856249765
-0.2207085663456047
0.0746224602652763
-0.01052732222403315
0.2137598949404851
-0.1970560148350179
-0.08623085733766536
0.1592623366763325
-0.3549345492908395
0.2083137524519391
-0.1920476325784345
0.08966331923413853
-0.4791209240289429
0.1741003475473155
0.1704949046760868
-0.2567257687854625
0.07296415303238454
-0.1946861540789988
0.1772314852122592
0.01738283968008926
0.1418794957003498
-0.0395852208134729
0.06595219771330849
0.4670482656449997
0.02045984019841064
-0.08138694841592932
0.05597030390408263
0.1257285634775675
-0.2603254076117442
-0.2309474264945207
0.5597115733051503
0.1571752422522703
0.07878596427504359
0.07512486406273103
-0.03106698090865325
-0.0006244784758211123
-0.003473934969495772
-0.03261641274886978
0.1708263276099737
-0.1777595334475424
-0.05698841322052278
0.02023002870199937
-0.1469785513446316
-0.05280666619500193
0.1537649064234981
0.2770621875401576
-0.0405807212575747
0.01165922726717907
-0.2552041940013174
-0.1308414341134385
0.2360894545123118
0.1788222325327661
0.1295260105971847
0.02171225515577178
0.0886095496922655
0.05215153786899018
0.4522297708259
0.01707191708102144
0.09772567814364323
0.0431437367732243
0.07216737353901037
-0.1153111094804377
-0.2426375725642655
-0.2005344923404247
-0.01993972624648326
-0.2020587340590485
0.2751439152509326
)
;

boundaryField
{
    FrontBack
    {
        type            empty;
    }
    Top
    {
        type            calculated;
        value           uniform 0;
    }
    In
    {
        type            calculated;
        value           uniform -1;
    }
    Bottom
    {
        type            calculated;
        value           uniform 0;
    }
    Out
    {
        type            calculated;
        value           nonuniform List<scalar> 10(1.036444486574583 1.06441266799093 1.022409189237246 1.021278850036252 0.9967112197433738 1.012730794220574 1.033892740082886 1.062847026885271 0.8672298588810451 0.8820430518960061);
    }
    circle
    {
        type            calculated;
        value           uniform 0;
    }
}


// ************************************************************************* //
