# p  FACE_DATA 57
# x y z  p
0.29 -0.0162926 0 0
0.29 -0.0156778 0 0
0.29 -0.015063 0 0
0.29 -0.0144481 0 0
0.29 -0.0138333 0 0
0.29 -0.0132185 0 0
0.29 -0.0126037 0 0
0.29 -0.0119889 0 0
0.29 -0.0113741 0 0
0.29 -0.0107593 0 0
0.29 -0.0101444 0 0
0.29 -0.00952963 0 0
0.29 -0.00891481 0 0
0.29 -0.0083 0 0
0.29 -0.00768519 0 0
0.29 -0.00707037 0 0
0.29 -0.00645556 0 0
0.29 -0.00584074 0 0
0.29 -0.00522593 0 0
0.29 -0.00461111 0 0
0.29 -0.0039963 0 0
0.29 -0.00338148 0 0
0.29 -0.00276667 0 0
0.29 -0.00215185 0 0
0.29 -0.00153704 0 0
0.29 -0.000922222 0 0
0.29 -0.000307407 0 0
0.29 0.000368889 0 0
0.29 0.00110667 0 0
0.29 0.00184444 0 0
0.29 0.00258222 0 0
0.29 0.00332 0 0
0.29 0.00405778 0 0
0.29 0.00479556 0 0
0.29 0.00553333 0 0
0.29 0.00627111 0 0
0.29 0.00700889 0 0
0.29 0.00774667 0 0
0.29 0.00848444 0 0
0.29 0.00922222 0 0
0.29 0.00996 0 0
0.29 0.0106978 0 0
0.29 0.0114038 0 0
0.29 0.0120464 0 0
0.29 0.0126284 0 0
0.29 0.0131555 0 0
0.29 0.013633 0 0
0.29 0.0140654 0 0
0.29 0.014457 0 0
0.29 0.0148118 0 0
0.29 0.015133 0 0
0.29 0.015424 0 0
0.29 0.0156876 0 0
0.29 0.0159263 0 0
0.29 0.0161425 0 0
0.29 0.0163383 0 0
0.29 0.0165157 0 0
