/*--------------------------------*- C++ -*----------------------------------*\
| =========                 |                                                 |
| \\      /  F ield         | OpenFOAM: The Open Source CFD Toolbox           |
|  \\    /   O peration     | Version:  2412                                  |
|   \\  /    A nd           | Website:  www.openfoam.com                      |
|    \\/     M anipulation  |                                                 |
\*---------------------------------------------------------------------------*/
FoamFile
{
    version     2.0;
    format      ascii;
    arch        "LSB;label=32;scalar=64";
    class       volVectorField;
    location    "270";
    object      U;
}
// * * * * * * * * * * * * * * * * * * * * * * * * * * * * * * * * * * * * * //

dimensions      [0 1 -1 0 0 0 0];

internalField   nonuniform List<vector> 
808
(
(0.7562604008293313 -0.01751726167748288 0)
(1.031218911063447 -0.01249098283971077 0)
(1.116450223990143 7.49168248887228e-05 -1.803802216696118e-20)
(1.085127597369724 0.01258173388394324 0)
(1.36153968824476 0.01542553226133713 -3.883028195665849e-19)
(1.038642613923143 -0.00936307832024837 -7.174135411237526e-20)
(1.013782769650982 -0.02028001199120054 -2.337771009361913e-20)
(1.078571340087638 -0.00474371094595989 8.930586207715695e-21)
(1.252395714967674 -0.02003461558842133 6.3342872676172e-20)
(1.084488672344254 0.009181135218327773 0)
(1.012515584185021 -0.01185013258617998 0)
(1.303961621436067 -0.05266724439606175 -3.529227791018127e-19)
(1.08601785574422 -0.001551618952882881 2.030180951063553e-20)
(0.6750384369253895 0.006415857974608408 0)
(1.283831014706023 -0.1208791221089947 0)
(1.081764278807147 9.944377940141342e-05 -3.810276834057532e-20)
(1.232696862533185 -0.1527020999001547 -1.002050179506731e-19)
(1.074321488786013 -0.0001112746255115422 3.157211089525919e-20)
(0.991853080009674 0.006759137550433639 0)
(1.026828500629961 0.009095220089677775 0)
(1.040820998185622 -0.01445787001532758 0)
(0.9875031693663348 0.04495318679683458 0)
(1.051064714521567 -0.006181335795631909 5.599009079925708e-20)
(1.053486980279752 0.008360961544002475 0)
(0.9334365410154849 0.1991367020305624 4.593395090711872e-19)
(1.164459570684533 -0.09055282119634338 0)
(1.184457659324639 -0.01884904317106252 1.573313618894034e-19)
(1.077262669043633 0.009462215344023745 5.207146217902273e-20)
(1.084217727830456 0.001892690406355199 5.065193539628264e-21)
(1.072062990630837 0.03097899852924383 0)
(1.075618438399319 0.002497921992227153 -1.175415432028684e-20)
(1.033291308825696 0.006254147025321298 -1.935143669554746e-19)
(1.059870993899706 0.01478538547230641 -2.396800212283311e-20)
(1.088971502831948 0.0051961903411296 -2.927630879526032e-20)
(1.119820720735733 0.03698005791724034 0)
(0.7550386496806356 -0.1210326283922941 -4.542124248537246e-19)
(0.9543690210475848 -0.005754880178632526 0)
(1.068993525250995 0.02248487128916766 0)
(1.068844282177288 0.007285988151729883 0)
(1.073629026032473 0.008770535608251055 -2.830510433572541e-20)
(1.092262288232592 0.02287078709632004 1.102529425661425e-19)
(1.149563557836311 0.002859023644608971 2.161241580380394e-19)
(1.095615701518048 -0.002483437070641977 0)
(1.015807462148151 -0.009223594281034773 0)
(1.129182273373937 -0.09853773750142829 -1.662623575758326e-19)
(1.044070855891671 -0.01176412110068198 -8.051360134199086e-20)
(1.058440583168824 0.02668285743679082 -2.821979609698347e-20)
(1.229695937957585 -0.1115295702742883 -5.617442989629907e-20)
(1.067746698178098 0.01226751068948982 -4.215179240434372e-20)
(1.255437351401047 0.01712996928379453 0)
(0.9969311272423411 -0.0180246706555472 2.078054341393563e-21)
(1.044544644442315 -0.00242115834995028 0)
(1.087363311736296 -0.002371727621708463 0)
(0.9976381898505868 0.007199981203058672 -1.895614234256868e-20)
(1.252448082871987 0.03380984645940058 -2.339632112299866e-19)
(1.063836408115145 0.01843052162443335 6.08075558932966e-20)
(0.9886386436189273 0.009010781722383884 0)
(1.017255619231165 -0.01114689728086285 2.450948058851802e-20)
(1.106713134389648 -0.001114690746881042 -1.185784726193729e-19)
(1.061772904422567 0.03119229650405023 0)
(-0.06454043674860635 -0.02181873691956097 7.15258998218162e-20)
(1.153921438148271 -0.05168087417295915 -1.896460421208394e-19)
(1.002482583570089 -0.00863762058709182 -2.694014576773916e-20)
(1.1837220435506 0.06577181216498587 -1.215884137168367e-19)
(0.9979158699970789 -0.01059000845017824 3.002248037597969e-20)
(1.08383340035223 -0.005544856732810915 0)
(1.242885870256595 0.09494776216631995 0)
(0.6960172836555885 0.003187639383193775 -7.49409458079941e-20)
(0.989891162968821 -0.0154651268924859 -3.127248540247413e-20)
(1.4580968990971 -0.01738913037267962 4.471923571442146e-19)
(1.060665286139531 0.007554092151214282 -6.751649631863807e-20)
(1.365244086947456 0.0975284980444589 2.907400462563509e-19)
(1.05477651394617 0.006761710796069915 -1.8437926022998e-22)
(1.081156004078484 -0.01412037897572306 -4.885027196212667e-22)
(1.163386979811901 -0.2350893071490149 0)
(1.022569825227372 -0.01443222717799832 0)
(1.017941873968236 0.01761752039244409 -3.104283660025931e-20)
(1.388299650099332 0.350061031181213 4.182679935974079e-19)
(1.097042792127414 -0.04200362761198449 9.336561081237101e-20)
(1.046288226292851 0.210695958568715 2.494029766744202e-19)
(1.124340329131817 -0.06327813872539426 1.159435880424116e-19)
(0.922150056613266 0.005179291942568913 0)
(0.9755314428640135 0.01859080857063478 0)
(1.004051418564625 -0.04870800124455373 2.844291831568832e-21)
(1.010934955924091 -0.01325620958962801 7.438782002593474e-21)
(1.030991642690732 0.02572972216989098 1.389666701292311e-20)
(1.527167981766145 0.03673041541433035 3.263894477144154e-19)
(1.29111263878035 0.0713837351588319 5.51932586778057e-19)
(1.07267509880442 0.002881944921014984 -9.129291515844346e-20)
(1.198608906087237 -0.09817819168919807 0)
(1.033888882019764 0.001498939471029123 1.330366962103922e-19)
(1.163357150108091 0.02125257913975489 -3.195242078579468e-19)
(1.001489956443475 0.03240826486529009 0)
(0.9996297119936949 0.001989170117009344 0)
(1.044253549295601 -0.000351672913105047 7.770312085079236e-20)
(1.209964678090364 0.1028997634976822 4.015327768849918e-19)
(1.011101895843763 0.006947892240452444 0)
(1.088661656231026 -0.07164900614276087 -1.05948566237273e-19)
(1.149228784569534 0.03593452012904921 0)
(1.209345314433405 0.09174890471513154 -1.897610225289578e-19)
(1.10808902292356 -0.02857149056143703 -7.646027693415416e-20)
(1.027946141099265 0.01156601692117848 0)
(1.085459454341875 -0.004678193208937705 0)
(1.020113887474767 0.02560377765565134 8.07364186859244e-20)
(1.074732615674334 0.05345030592946465 -9.159802645827648e-21)
(1.103666530685058 -0.004374814699508095 6.271299492394556e-20)
(1.106082618044789 -0.09699906245762112 1.54841605288416e-19)
(0.9592536663578257 -0.003126756547227955 0)
(1.066575034900453 0.0314053527112382 3.823071120763309e-20)
(1.167787644528093 -0.07597888470689836 2.317595826255628e-19)
(1.05372948015963 0.04484389311873879 -2.902312534572054e-20)
(1.022780612281428 0.06772608662371427 3.715912486921457e-20)
(1.090716530139303 0.0262472413529348 0)
(1.011885210254382 0.0159862341761823 0)
(1.028970932989289 0.009431784512891167 7.914009857664382e-20)
(0.9486806583526037 -0.03272081581230779 0)
(1.053336458081091 -0.005641876329000235 -7.782500437978825e-21)
(1.33958910536518 0.05927504582721533 -1.581404634639522e-19)
(1.07986000788304 -0.01334757722253529 2.578969729463637e-20)
(0.7441802275357816 -0.001791158878289457 0)
(0.5292932285203118 0.1523279370615158 -8.607009150643762e-20)
(0.7058313313420314 -0.00252368917746776 0)
(0.699149173785398 0.01467615291760584 0)
(1.077802796019157 0.003468795080784964 -6.697651723638022e-22)
(0.9906336514114725 0.01445824161965828 0)
(1.280374107286468 0.1229860633371367 2.498499952634665e-19)
(1.012279149699657 -0.0279406038971469 -7.741438419333439e-21)
(1.038938770445009 0.02056952091908813 1.389721853711003e-21)
(1.058380346448206 -0.01218011190466832 0)
(1.126391554444248 -0.009256227344935997 -4.998712551309274e-20)
(1.255584108195202 0.1294007088642519 -2.164038779144754e-19)
(1.088851921694524 -0.01107667304145377 -8.472285482987731e-20)
(1.070365511964414 0.02513290544585904 -1.092879326807423e-19)
(1.040946306543719 0.04673783324558553 7.024629853078901e-20)
(1.022291012998293 -0.003574034184702433 -3.443120478783287e-20)
(1.061422750071394 0.02360343115496293 5.994446443997937e-21)
(1.13360237829934 -0.004553774811523679 1.077422653046571e-20)
(1.041324909512618 -0.01310436802776741 -4.682582140092211e-22)
(1.087800845045087 0.03483968900090923 0)
(1.028678026535431 0.01326395995895195 0)
(0.785008170220387 -0.06563359691553128 -1.848170967984723e-19)
(1.030219815525836 -0.002071416610937184 -6.810483568930096e-20)
(1.137232969298606 0.0001222731762844685 -1.318599487015335e-20)
(0.7035438733828796 0.006555335690672901 7.362725037113115e-20)
(1.17606293892595 0.01961025572001716 -1.926028766615583e-19)
(1.126280913422235 -0.003948248511638455 5.806993710267572e-21)
(1.129033193732291 -0.01009361976067925 3.444476873301013e-20)
(1.000940065270423 -0.00297700924173696 -7.322909886035095e-20)
(1.09394245825085 -0.06405367024054945 0)
(0.9854884207361343 -0.001312265564795608 0)
(1.058020628254915 0.007069558646418408 0)
(1.005906721623289 0.1891848111617532 -2.436229385923909e-19)
(0.7795297820784115 0.01241509892268855 0)
(0.8569383693685437 0.1026612718496827 -8.366176381193561e-20)
(0.09569880133078425 0.04052124029063784 -3.071108040288615e-19)
(1.173478933717111 -0.0314807429987256 -2.240848609293706e-20)
(0.6712754121979586 -0.007355240029384119 2.436913507014926e-20)
(1.165926612869835 -0.1065573644087987 7.000325824258469e-20)
(1.127545357138153 -0.003343518120781256 -6.172925554693642e-21)
(1.155569780361953 -0.05025827322163454 2.177564250354966e-20)
(0.08666189830563208 -0.1959162803873393 0)
(0.2690053323467 0.07928709556824502 0)
(1.252210409619586 0.1091438403443394 1.894637176623278e-19)
(1.021623773554823 0.01986756583053801 0)
(0.7375915234479363 -0.0063363068975788 0)
(1.075012467497629 -0.0118689478811802 2.692708654615948e-20)
(0.975250234950604 0.002820861284803562 0)
(1.285739387042006 0.1259981258298142 -1.490917843049072e-19)
(1.057440805235913 0.01121465488569348 0)
(0.9927362738588767 -0.008293695299494992 0)
(1.065272667720166 0.008023090197069116 0)
(1.006211333050684 0.02085484044145734 1.892039481234827e-20)
(0.9228229925717095 0.005423390127050831 1.170300150067408e-20)
(1.175751326205846 -0.1989616628714897 0)
(1.00503390211833 -0.005228495166429615 7.80154258211951e-20)
(1.059210162386397 0.006178989488119004 0)
(0.7745799586535171 -0.003348024148804468 0)
(1.215347033772229 0.027601667513082 1.652762988092436e-20)
(0.7051112108845601 0.001322213884189517 0)
(1.43282753421776 0.08862089082620338 -5.272094948312092e-20)
(0.993504078825087 -0.006462282434225755 1.669263630896873e-20)
(1.275741450794295 -0.002441935063170869 -2.945754341654262e-19)
(1.060006453149276 0.008753112801314739 1.37371777369476e-19)
(1.000897434219641 -0.01360173319624372 0)
(1.216967382441262 -0.15478532296255 2.033199116377437e-19)
(0.7331766313396761 0.01379206542307794 0)
(1.098020809611546 -0.005126058040099683 0)
(1.15262541266823 0.06489192143008703 1.985680686769869e-20)
(1.006687973589432 -0.007346201379163596 -3.020279262442402e-20)
(1.120779634506583 0.04978499599005094 -1.738931540744689e-19)
(0.1468984700913453 -0.08535455364287053 0)
(1.073187321897756 0.03685392493290492 0)
(0.6615136104164344 -0.002905877048910204 -6.416917676226956e-22)
(1.012084890095718 -0.01965923434678619 9.498444506373485e-20)
(1.061816316807145 0.0006852103449755547 0)
(1.086869049732509 -0.1331284004462529 3.774218192131744e-19)
(1.002519673041254 -0.006190422533555365 -3.443839536024542e-21)
(1.001820013648093 -0.004581647199923288 1.193309182860047e-21)
(1.093996061204876 -0.009248535107015215 0)
(1.020760472037028 0.02026461200592744 -6.371842430832416e-20)
(1.106791588156485 -0.001679188328377236 6.570932716549148e-22)
(1.073749798927458 -0.01091357211359899 6.535303386700231e-20)
(1.085749099250811 0.02236001442829648 0)
(1.327121197798883 0.1639330729360642 0)
(1.002048240947385 0.0003171750384860002 4.413891714679638e-20)
(1.323881894404753 -0.128568363101528 1.556709547218621e-19)
(0.03435321293728487 -0.1523942824771241 -2.491130723064497e-19)
(1.071295923145448 -0.005564004430424993 0)
(1.11690423835552 0.001936658560775297 1.227592098201785e-20)
(0.7269740376887918 0.01787335227098519 0)
(1.061576963239596 0.002710826007529729 0)
(0.8682302589000428 0.1658025662203736 4.749899833860756e-19)
(1.272145694834471 0.1212449986610182 1.823045239399913e-19)
(0.6541654349333628 -0.003116097503200266 -6.316978115432386e-20)
(1.042330306957886 -0.00460619867785768 -3.892186510426694e-21)
(1.054943645645203 -0.000272532621808505 6.601455405796167e-20)
(1.359628475713059 0.123598407828844 6.738153955929595e-19)
(1.336889809220613 0.2530047108639354 0)
(1.058267865989116 0.003760396080204998 0)
(0.9954360815789184 -0.006835420004494669 1.476770869897166e-20)
(0.9947493014177403 -0.0100687692691688 2.53348576347522e-21)
(1.384865673039441 0.2004354995749186 4.271257370055728e-19)
(0.6816688593595013 0.0006511245570229288 9.838498679686798e-20)
(1.005638960558682 -0.002028783679801246 -5.964167818781514e-20)
(1.097985410424916 0.01304499255563656 2.540578643571359e-20)
(0.6694677981959299 0.00500754837571265 0)
(1.066083684799227 -0.01202756515365322 0)
(0.9883702344505003 0.1278778997358497 -1.223760159903455e-19)
(1.082501681523832 0.0004975627961524692 -2.467221055822202e-20)
(0.9820044737977767 -3.289967958722329e-05 3.285479340580682e-20)
(0.9912104096422188 0.00600993200990821 0)
(0.6382717889790546 -0.001154627036793075 0)
(0.9768895130970968 -0.001270778451756094 0)
(0.642004843820643 -0.001485025243814451 2.723692246895987e-21)
(1.088356589688863 -0.05771267163157136 1.2053539575049e-19)
(1.111274744494947 -0.001436730732136126 1.236272456361509e-21)
(0.9580596735975638 -0.0009197974092040851 3.912154340613712e-20)
(1.015806419747447 0.01072179523750386 1.66560637908172e-20)
(1.064144276360974 0.007647444603847264 -2.179340198196731e-21)
(0.6347886934799195 0.008847108829152638 -3.645518900484343e-20)
(1.001741910797097 0.0120194183889338 -8.115319574386264e-22)
(1.035522942981679 0.01259481257143216 4.990613389865597e-21)
(0.9880798769894015 -0.007919370449440919 0)
(0.6100822615501227 -0.0004808065388130659 0)
(1.068755161074777 0.02276028832480706 0)
(1.016026225645269 -0.01556968734153343 1.059848865261123e-20)
(1.021854812660176 -0.002696912673139192 0)
(0.9920537928234672 0.01514812884561311 -9.303037814626409e-21)
(1.012215548989436 0.006107125871088724 0)
(1.128481812233489 -0.006042932528727876 -1.249676074222783e-20)
(0.03516395248853216 -0.138187956331945 -4.576752749271874e-20)
(1.036238951757851 -0.01559193248331184 -7.66573100388097e-22)
(1.045402998162885 0.008058097386685559 0)
(1.086742334806739 0.06501371016651811 8.394469616316453e-20)
(0.9698129206592858 -0.001224979143262784 3.118796015908167e-20)
(1.020615960671142 0.01716727742820917 -2.341856079215023e-20)
(1.00489556194166 0.001819202314934575 2.463898207777582e-20)
(1.040872349351363 -0.00469288095092964 0)
(0.6409717499483548 -0.00401140806340379 0)
(1.025939560271733 0.02449201353549548 -7.482650698607679e-20)
(1.078959716207945 0.004505097740193612 4.852347812259302e-20)
(1.014067794473474 0.002385138087721863 0)
(0.9811001309943126 -0.002563014601214763 -1.913123190056592e-21)
(0.8731875469562509 0.0247965006889999 -1.423921058786794e-20)
(1.013970116701679 0.003033553568303194 -1.014767640907735e-20)
(1.027512268602504 -6.056361749757912e-05 1.770736510218591e-20)
(0.9784188878382806 -0.0001245768789778744 0)
(1.004272315543775 0.008579691207905183 3.430873776198388e-20)
(1.106258007633164 -0.005019638309252314 0)
(0.9285183146376056 0.0007258032307435806 -3.445214717194129e-20)
(0.9598548467535041 0.008757374130336381 0)
(0.9117808126212383 0.2096476781091056 5.159962308840141e-20)
(1.010994535750106 0.06724360972609267 0)
(0.9919674229867738 0.003641389422487354 -2.311667971073204e-20)
(1.053072103918143 -0.05236223505842756 -2.762010660094268e-20)
(0.9915457768070955 -0.001316478674562778 3.412783265049809e-20)
(1.010804734652626 0.001956152684376716 0)
(0.9792828238564262 -0.000879999471702173 -3.184771240029821e-20)
(1.171909174396554 0.09560952631943566 -3.312163874305227e-19)
(1.068340095610736 -0.263574471074172 0)
(0.9943702824446027 0.002113759504454264 -2.195883602388299e-20)
(0.9823096580439561 0.009469737620093219 4.961421426325329e-21)
(0.9595638775198886 0.00200575615355929 1.059060766126566e-21)
(0.7460016656380127 -0.00109668334971093 0)
(1.113947316519636 -0.07793599315906227 0)
(1.008149595774883 0.001826437859559048 -2.139243110580391e-20)
(0.8974635052165675 -0.001987581678989092 -1.039518729824067e-20)
(0.8523917255425004 0.01735955786441173 5.645612221832122e-21)
(1.01067524015352 0.005661727554169275 0)
(0.9511080531924747 0.002999019349042707 1.581687102163381e-20)
(1.005810499290349 -0.0002351975292950052 -2.296406730598506e-20)
(1.022031528636583 0.002378734098731402 -2.549077176689714e-20)
(1.111328472526407 -0.005267143612260658 -4.908986398117602e-21)
(1.115393787351389 -0.002464179588513662 0)
(1.012458359757162 0.000222309211414888 0)
(1.024398924348066 0.001995697640137022 0)
(0.949947050842447 0.007766919209791803 -2.184765263938729e-20)
(1.017883533315624 0.01324740134569481 5.415467065164933e-20)
(1.079806988634055 0.007585211751337511 -2.23817983209363e-20)
(1.037347592062993 0.005604803300788164 0)
(1.10640110198091 -0.00665336421293249 1.813795048443552e-21)
(0.9963298476391795 0.001854022237740601 -2.207210554878592e-20)
(0.9833946783589441 0.005243122265454121 0)
(1.01177505357298 0.002179420180446985 4.68061747888477e-20)
(1.364351071069363 -0.3137785740345933 -1.127877256422786e-18)
(1.122176324840875 -0.04552510085751839 -1.091862198694508e-19)
(0.9730742002901573 0.007492084200667172 4.895675715727824e-20)
(0.7834187807149569 0.02405945250107639 -3.323388962936582e-20)
(1.220283438768633 0.05094955995159774 0)
(1.218298208429416 -0.1380300773802165 -1.468965359386298e-19)
(1.080715280289159 0.005927136952347621 0)
(1.009432449854372 0.001660252656490459 2.21975224779456e-20)
(-0.1671923528630974 -0.07815127217744217 0)
(0.9939706791298931 -0.004664144743000263 0)
(1.012400451591596 -0.02313760750639622 4.329362143476297e-20)
(0.7061020870365801 -0.01942183647927669 0)
(1.096802125888581 -0.01500643001462208 2.240316130546549e-21)
(1.04208556635237 -0.004894449792563304 1.544824407506028e-20)
(0.6331078695004718 0.004178788751362415 0)
(1.446407295552539 -0.1224848051210292 0)
(0.9867560490101656 0.001835344829767878 -1.084281068760503e-20)
(1.069671974604152 -0.01494001410108148 0)
(1.038109088918328 0.0005160133398360094 2.148426887384725e-20)
(1.086946605332354 -6.862516471511026e-05 0)
(1.008591101908086 0.001563920746088203 -1.13993713270968e-21)
(1.006185882289333 0.003050009649604831 0)
(1.01427557063847 -0.01254837656205327 3.881383263100783e-22)
(1.003137376485964 -0.02030358453741486 0)
(1.033482861390807 0.00439029338472231 1.816970515673359e-20)
(-0.2100184636690713 0.04909958553182381 2.697147965485368e-19)
(0.8217773656059821 0.03808431717782805 5.509309886265487e-20)
(1.005491911102855 0.002266258245250829 0)
(1.129108347992622 0.02521980263350473 -1.287600311996665e-20)
(1.11599951708514 0.01806759517422382 9.159764087521569e-21)
(1.053923484219115 -0.01311750507526709 -1.289225758491485e-19)
(0.9987819516430041 0.0103678634326714 7.600534936079987e-22)
(1.081517260514783 0.003698810122734073 0)
(1.185372852393237 0.05110494843186919 0)
(0.8352490917026859 -0.07455439484935213 4.598177670668031e-19)
(1.101382070653923 -0.01454853728097249 0)
(1.032434852259531 0.007793850564413317 -7.496816716102539e-21)
(1.04276180938103 0.005283716113690989 6.037742976675537e-21)
(1.051205392251939 -0.06124895460427945 -7.487102733543487e-21)
(1.140271406074475 -0.001917478710517844 1.682248842451365e-19)
(1.07861836107461 -0.004213437451741066 0)
(0.9952274014909362 0.001435641474921758 0)
(0.9968840925994357 -0.02385575731860803 -2.262485911753509e-21)
(0.9915093378504484 0.002645712220191857 0)
(1.029043695526242 -0.03806163353160147 6.391256963854325e-20)
(1.294667842318075 -0.09541812905915541 0)
(1.04751665355995 -0.0155084908972739 -6.012134051040726e-22)
(0.9861594835989477 0.01685283661610935 -8.65689155147191e-20)
(1.035424753378285 0.04135892694442609 -2.397658218376981e-21)
(-0.09235309848701261 0.1731140522947737 -1.645559131916422e-19)
(-0.06259688314176381 -0.2873632538466226 -1.397661524523149e-19)
(0.8607584557020957 0.1213848815078137 0)
(0.2898011530008534 -0.003712811068782561 -3.045028211832426e-19)
(1.013217404538791 -0.01816871911146675 -1.476423639455754e-20)
(1.063960769594122 0.002616228628980422 -2.107227631238911e-20)
(0.9933080697031211 -0.01933749201648878 2.877786750643237e-20)
(1.023251126972232 -0.02680752843958555 2.499007676755631e-21)
(1.008291340887674 -0.03135299611742064 -6.569673664478482e-20)
(0.9886930146916418 0.004880941655409659 -3.475048445168509e-20)
(0.9934730088198569 0.004262741526227992 0)
(1.024862031909954 -0.001816134310364022 -3.591797252065233e-21)
(1.93407209610155 -0.1553031183816083 1.073521122294762e-18)
(1.052100381053915 -0.01582602311146768 0)
(0.9957886696399403 0.007380609812481561 1.533537385719425e-20)
(1.002843815798602 -0.0001993962204272344 4.077143010629504e-20)
(1.17458544299577 0.1347054074182297 0)
(1.003424833735959 -0.01111525919960631 -4.250072826392859e-22)
(0.9505031059481772 -0.002569087142927828 0)
(1.037846491582029 0.04173501192486977 0)
(1.29568253172853 0.1609562516364452 2.227104724408673e-19)
(1.083416376529465 -0.01132140880515483 2.262246555404723e-20)
(1.018353684091441 0.03212565882141113 4.68952991632307e-20)
(1.08254589682486 -0.009057961470187639 -2.182431349673348e-20)
(1.052178569636925 -0.009376542692028995 8.083964511246882e-22)
(-0.3841498579306115 -0.03733109758124891 0)
(0.9980344770347223 0.0138924055286837 0)
(0.1152483475595806 0.05965240459147475 -8.617025331969054e-20)
(1.006075045487532 0.02288398432010772 -4.140220000289973e-20)
(0.9948302925358677 -0.003164449413998815 0)
(1.000324827275561 0.005828531915876603 -5.056399024056835e-21)
(1.081522198786854 -0.04210761001639121 0)
(0.9959045784471724 -0.01798530358481763 -7.735785936763258e-21)
(1.08984086925813 -0.04997726787986798 0)
(1.441244329303201 0.1771567046109604 0)
(1.054122955016461 -0.01176323637218188 0)
(0.9912198539309156 -0.02250004759085552 -3.868864407744794e-20)
(0.9820888634735858 -0.03453574248281892 -2.234471976807706e-21)
(1.019529936355321 -0.0173927148584812 -1.776038535479296e-20)
(0.9975458632451056 0.01714595424170458 -5.61147686390946e-20)
(0.9950507475887687 0.009936114328382427 -1.494535797597997e-20)
(0.9937820186794909 -0.02650752175885061 0)
(1.002802563705613 0.02570543181631128 1.956006524465573e-20)
(1.040231537624503 -0.03721279728236514 0)
(1.110581258724503 -0.03596866058205665 2.599702339742948e-19)
(0.9953254579936792 0.01733105586296685 4.642763161782108e-20)
(0.6151186675523678 -0.008669537771579885 0)
(1.141471054194305 0.1334314545062598 -4.235219530532975e-21)
(0.845723699094734 -0.1034272847368771 0)
(1.138910622244143 0.07304283561035618 -2.715158919639291e-19)
(1.314409976313386 -0.3876753461789625 1.290168944986405e-19)
(1.076295118266865 0.06234652240698459 -1.338148685358538e-20)
(1.00947913067888 -0.03003632354103782 0)
(0.9551873303468302 -0.2145237663294129 0)
(0.5095001807965528 0.1469332726621319 0)
(1.012154809016729 0.01142397330315919 1.132313712486369e-21)
(0.7004851734578833 -0.02007149783365264 0)
(0.9982522527316378 0.01809538002696893 3.564221932189498e-20)
(1.02107791433955 -0.002215495700652278 -2.735116774539208e-20)
(1.079175236795439 -0.008058411182247656 2.778419880764812e-21)
(1.039908686386489 -0.005932223771142573 3.25185451426237e-20)
(1.042670762046451 0.0109059788249541 0)
(1.057328145920814 0.02986909118277056 -1.020004699783539e-20)
(1.051154548788087 0.0343758712695069 -1.814878214387523e-20)
(0.9826815443667938 -0.02179501270240059 0)
(0.6249355360647705 0.005136173984881997 9.184588250601913e-20)
(0.8941737040492999 -0.00588347867670515 -8.859619258589296e-20)
(0.9093600976546999 0.005318635189346858 1.441858491062971e-20)
(0.6295743162561499 -0.006381645167926019 1.406422790125791e-20)
(0.9782692078532196 0.0003844464889662666 2.633736007860167e-20)
(1.004452542733235 -0.01759408776929452 -3.505264614254829e-20)
(0.9661213784890049 -0.01331062979389741 -3.496220185013701e-20)
(1.085510257606047 0.00146406631953374 0)
(1.01911517347423 0.00441402150690614 1.073418030882464e-20)
(1.133115555304017 0.04857110699486596 1.312365965118981e-19)
(1.034292173717825 0.04162851873945822 0)
(1.022112557419599 0.00259847040060119 0)
(1.582325204808029 -0.1666969248414795 4.398471500093994e-19)
(1.039548537553241 -0.03065088723245589 0)
(1.020263917138179 0.006593809863440925 -3.723758306762024e-20)
(1.088958762728826 -0.004459972565693391 0)
(0.4807460340894967 -0.03054518994422124 0)
(-0.03984223556573485 0.01176306568589848 0)
(0.9899601951788159 -0.0239571493635914 1.220189906976015e-20)
(1.299991012617112 -0.09530580818692524 3.734758988217635e-19)
(1.035154892159195 0.03902279241825611 0)
(1.022490397095568 0.003306877019833275 -2.244155649661968e-20)
(0.9550326054959086 -0.165134002444487 1.667074116715947e-21)
(1.252301750238797 0.0762697725085428 0)
(0.5986310863529709 0.731879378001047 0)
(1.308758763415199 0.1500554626373372 1.106248967268514e-19)
(1.675652390172348 -0.02477183893613487 0)
(1.065538312977589 0.1138977051624078 0)
(0.721653514845381 -0.008030457900508426 2.618079126949414e-21)
(1.052642693294543 0.04791481015236392 0)
(0.7158321424657033 0.1009534515405758 1.194925616127938e-19)
(0.9967955393595659 -0.01641164905932703 3.575180025524239e-19)
(1.033320478521228 -0.04012570378918643 2.671668461620265e-20)
(-0.3741234556383789 -0.01632567133703771 0)
(1.071568394280998 -0.01628976096663435 0)
(1.096278319451604 -0.01377441002527251 0)
(0.6476312627471992 -0.5012476686109245 -2.491740099597941e-19)
(0.9922588702995108 -0.0008683397158959775 0)
(1.091787397504505 -0.02179953895421312 4.679950594538423e-22)
(1.188689634647398 0.1213819259984123 -2.004914416970147e-19)
(1.089546519014501 -0.03918108584195583 0)
(1.005036545914684 -0.02124031622004653 0)
(0.8152676892186451 -0.1893861190899843 -1.739854651810186e-19)
(0.8998591489731812 -0.1356889638664689 1.544707160906977e-19)
(1.028100928209903 0.0106564119622044 -2.222229671423887e-20)
(1.023117193548755 -0.009226218583709507 -4.511694331743298e-20)
(0.8702852839338096 0.006147304685525679 -3.586403156048036e-22)
(1.50382699611218 -0.1930711128242416 0)
(1.301091711398334 0.1182620050357054 3.186427777049328e-20)
(1.245253739409659 -0.07744417616903085 -3.003003394268827e-21)
(1.095868490031894 -0.01862491038760052 -3.850684747255613e-20)
(1.043846301361455 -0.01400630197759352 2.544362515439654e-20)
(1.092812529006644 -0.0391625403387476 9.19397732851321e-20)
(1.032453909030465 0.01960256492837099 0)
(1.045278792283511 -0.03282153198664297 0)
(1.115878184460402 -0.009028049609445036 0)
(1.089172970818284 -0.0257085072779293 0)
(0.997886129800533 0.01096381123433675 0)
(1.150270339252629 0.07533726055624129 9.422003303252797e-20)
(1.343798116175559 -0.1519939812518206 0)
(1.040095078090712 -0.02098299573479339 -1.856215159747651e-22)
(1.053737211672164 0.05253159991038359 0)
(1.009981605918019 0.01462560949910008 -3.952679474509796e-20)
(1.033694230956215 -0.008119408732675172 9.132518102839712e-21)
(1.088977746985867 0.01333440365313119 -3.240204437095459e-20)
(1.084858093668079 -0.02964668940205889 0)
(1.076328782945692 -0.00360801799644073 0)
(1.105804800326358 0.09429286741797667 -1.420531999271287e-18)
(0.9351537664434288 -0.1488189852951866 -7.081567586406634e-20)
(1.173978446238074 0.1046517054270231 1.10130483025098e-19)
(-0.4753540999775935 0.005618927876727358 -2.925220861225236e-19)
(1.019518222846501 0.02893308048097998 -8.810085654238858e-20)
(1.005045649510255 -0.00482179049907142 0)
(-0.2902099507322419 0.04005808106591079 3.55773288632007e-19)
(-0.0541616049325413 0.32732854597185 7.312816538190097e-21)
(0.9952279336783529 -0.006315075380198175 9.568530172119953e-20)
(0.1901608721613172 -0.03924343570923506 1.427907688667784e-19)
(1.097259577442713 0.08380523806433232 1.521386873849658e-20)
(0.09385739250026531 -0.1078410951693185 -5.442630953993807e-20)
(1.10785961288894 0.003105097773393375 0)
(1.100600022230351 0.2569191023083563 0)
(1.021779536310274 0.0219644359282486 -1.725542679692314e-20)
(1.074030151567799 0.05843647017116724 0)
(1.025344010392637 0.02718093527789105 -9.599102961814062e-21)
(1.261680856053585 -0.5480427739421878 8.02748996116071e-19)
(-0.09085976230063024 -0.1984414452308103 2.181912089562518e-19)
(1.295318666072602 0.1161686192107367 -6.277448556717252e-19)
(1.123786776138021 -0.001276312940052447 0)
(1.133105900561713 0.09680883012733738 0)
(0.5268845738959546 0.08221753228701306 2.544928037267411e-19)
(1.023163789887937 -0.02112034493543637 9.357225273958125e-20)
(1.005477229923013 -0.02392159623375628 0)
(1.212376545487975 0.2715252390846057 -9.631957069845614e-20)
(1.254234835275442 0.1373512117233111 -1.58220162947294e-19)
(1.026589797050253 0.002769287789191493 1.543208859907182e-20)
(1.298980297586802 -0.08453620895691549 -5.005508435182094e-19)
(0.2978517353245957 -0.0159377327279844 2.631704499857237e-19)
(0.8290997363189461 -0.1466289393276313 6.70686014631602e-19)
(1.057762764812938 0.06465087423784764 1.053401279072014e-19)
(1.041292039930342 -0.008158121053070216 1.508856850274933e-21)
(1.001294269728461 0.02011936727589702 2.970977285359942e-20)