/*--------------------------------*- C++ -*----------------------------------*\
| =========                 |                                                 |
| \\      /  F ield         | OpenFOAM: The Open Source CFD Toolbox           |
|  \\    /   O peration     | Version:  2412                                  |
|   \\  /    A nd           | Website:  www.openfoam.com                      |
|    \\/     M anipulation  |                                                 |
\*---------------------------------------------------------------------------*/
FoamFile
{
    version     2.0;
    format      ascii;
    arch        "LSB;label=32;scalar=64";
    class       surfaceScalarField;
    location    "213";
    object      phi;
}
// * * * * * * * * * * * * * * * * * * * * * * * * * * * * * * * * * * * * * //

dimensions      [0 3 -1 0 0 0 0];

oriented        oriented;

internalField   nonuniform List<scalar> 
1171
(
-0.927908955191744
0.9279089551513996
0.7874239751274683
-1.099247274454875
0.3118232994922524
-0.1896685399661085
-0.7659315798562754
0.9556001198018842
0.07209104168941258
-0.1173406840203856
-0.2124148390545164
0.3297555225485777
-0.7874239653395477
0.06941652791781733
0.7180074374346588
0.811386633227417
-0.1779890316398374
-0.6333976016529925
0.8740551465083045
-1.04418970549163
0.1701345590244684
-0.2854257103070393
-0.09792164714233585
0.383347357801382
-0.03647085238798176
0.5489736987547256
-0.5125028464526936
-0.5066162138184427
0.8264222221348385
-0.3198060082649828
-0.4027663893957791
1.045790371281399
-0.1717352249193641
0.3920895702230928
0.05017284230147551
-0.4422624135786125
1.045928533586013
-0.0001381620278598622
0.4439758529832688
-0.05188628524800403
1.056461937308089
-0.0105334071301605
0.5803435158417117
-0.7700120501121381
-0.724101048633978
0.55658740673254
0.1675136418348234
0.2143710622800301
-0.7209872826967417
0.5499983281159513
-0.9226011700500747
0.3726028411644297
-1.094215207637397
0.6866112608344772
0.4076039469002294
-0.5955982927643044
0.5591274466025168
0.01728926030799074
-0.2558698987387993
0.2385806374828221
-0.02251134830672913
-0.523468614766658
0.5459799627907781
0.4003766802556413
-0.4982983215675766
-0.9189657358576943
0.94167152239095
-0.02270578651048561
1.067716425924992
-0.01125449041956971
0.9348609180313388
-1.116669786840261
0.1818088687363896
1.067166903678728
0.0005495181177228618
-0.6644072862996346
-0.05969376122404246
1.262233003796575
-0.8643128903937718
-0.3979201134047293
0.1482011629583359
-0.1099465591400542
-0.3257161158682181
0.4356626753007783
-0.2855064066641371
0.1918754833876894
0.0936309237213217
-0.5836900821543609
-0.5155571967433172
1.014074507627359
-0.07921359013239473
0.009879457838028741
0.8254993988547848
-0.8353788566517855
0.5717384147986673
0.6904945912997611
0.4390271433356485
-0.03087642837608412
0.4312531083496554
-0.808064672859643
-0.1025265625181411
0.9105912353017087
0.5020746151119181
0.2539937155189749
-0.7560683306399838
0.006799727330681161
0.5291007176127247
-0.5359004454597639
-0.4900005555044779
-0.6042146542822869
-0.4227524575559976
-0.6939173288919976
-0.02720820693718343
0.2706444628565366
-0.2434362551043886
-0.9247569188516285
-0.00509606282145849
0.9298529817267076
0.3086122814849613
0.07473508289609428
0.7615876702504446
0.04979895877924175
-0.533000341930048
-0.06259794881661185
0.04599432721261333
-0.8540590010502214
0.07597145401397626
0.8632319191697148
-0.9392033731657399
-0.346826469264876
-0.04093382764294157
0.3877602970511136
-0.6820513818988214
-0.2427055332292515
-0.6343834374841482
0.7103548894661657
0.6144136095140728
0.212008606305627
-0.5433792686190566
0.9456420100379733
-0.7789395472023805
-0.1667024628025295
0.01076459213604713
-0.008360849661390647
-0.002403742413330592
-0.4034870882941671
-0.09481123345589153
-0.2410443082050602
0.8554579125626842
0.04819056547017875
0.3344096888158125
-0.3826002538761178
-0.4613949065914736
0.9634695177231226
0.6804607959357367
-0.7829873607211766
0.3197197084005517
-0.01597265425226975
-0.3037470541933351
0.9307289852218268
-0.9307289852057228
-0.7812009251555684
0.1110067721380369
-0.323421607392184
-0.7499276128498814
0.7598070724737097
-0.09057904682992914
-0.143358182079604
0.233937229518734
0.8649039871916917
-0.03940458547556513
1.05444393326862
-0.8004502239227604
0.1866986922140625
-0.3162778778121851
0.1295791854312041
0.8585161028804373
-0.09692843346882142
-0.6114044169234378
-0.03907349038666352
0.6504779073433282
0.1234373050959289
-0.2304838742815669
0.1070465681499301
0.8055832923425561
-0.9835723271117913
-0.4343956340299432
0.3291796282113481
0.105216005328917
0.5331757424602082
-0.5556870936146574
1.021910949504272
-0.4562019936122434
-0.5657089558810571
0.5991584907616786
-0.719326464278164
0.06659564648742866
0.6527308181093689
0.102447767277861
0.5695660095929169
0.05532037031201557
-0.6248863800212712
0.1946676366456645
-0.0836608647005618
-0.4922210179952106
0.1453945476708072
0.05024048168500269
-0.8864385150156816
0.8361980332601467
-0.4732957677242691
-0.7132185532419638
0.04881126838192944
0.4371972782842647
-0.005944166745929721
0.3000132507624543
-0.8552755875939358
0.5552623366573091
0.4157563682901578
0.5842436316426672
0.5605152093467286
-0.5145208869072367
-0.3679102788509575
0.03917464627880712
0.3287356351169788
0.6812772038396211
0.249451781811076
-0.566796686505402
0.5735964140643398
0.1114811625713778
0.8749998133251466
0.01019480368623308
-0.6215992188761974
-0.7490697966952544
0.7993102773535622
0.5304925235204401
0.07000050777938288
0.3013666642408083
-0.371367172209948
-0.1674477424496421
0.444818622225716
0.08428210437385186
0.874705050421077
-0.8049937894685263
-0.06971126102287216
0.6353232949444554
0.3103187165308084
-0.4306952958123748
0.5736963986567344
-0.5036958910559108
0.4171063784611037
0.1328919450242447
-0.04672808492692073
-0.5933311339338052
-0.1386300034156155
0.7319611373669959
-0.1497616220021642
-0.7809673604200625
-0.6110060913952553
0.3602862011362222
0.2507198912537273
0.6219254091804454
-0.611730605975021
0.2391764731691532
1.011466365498777
0.04297756707261968
-0.7490697988228504
0.232163972878001
-0.2213993782166481
0.6804607972478669
0.801751758302276
-0.8017517582423275
0.8376272489469511
-0.8330918624610995
-0.00453538655364895
-0.4453502183795742
0.8611065866849541
-0.1472854534906956
-0.3449355623054882
0.7347506038545014
-0.6685481356229173
-0.06620246817147807
-0.7359258629305191
0.1425947298361574
0.1390552496892956
-0.6720555914765343
0.7829873726123479
-0.9504351150118547
-0.3686537593606626
0.2891595927221504
0.07949416824730507
0.1457664958189157
-1.010098734902817
0.8643322390598793
0.4810880977724646
-0.0420609543684492
-0.3080870172392345
0.5862992207980032
-0.2782122036824937
-0.7386061533929182
0.884372650951094
-0.1570141363720586
0.7311328257631609
-0.8413757388761899
0.1102429130895271
0.9763168756150806
-0.5391992976876061
-0.4371175778637643
0.7550236713186269
-0.06501180981687875
-0.0330937939805486
0.1846197759653586
-0.1515259814875313
-0.775816504684074
-0.8399258759596715
0.07399430234721609
-0.7499276124867474
0.5136844864154222
-0.5546183113062225
0.1003484573048296
0.7173392518348226
-0.8176877092724787
0.7536051973111692
0.1743037401982631
0.5029270882511685
0.4970729117719626
-0.05253084070649705
-0.612501674435181
0.6650325147983703
0.8825620291253682
-0.007856981907460646
-0.7550236713319921
0.7993102775598331
0.1915763205245022
-0.4474462222534887
0.01371893306680475
0.003809858805024701
-0.01752879531985583
0.5886655466436677
-0.4374380970568239
-0.151227450004189
0.7180074314842618
0.01007951106511019
-0.1087930507682451
0.4381541089824293
0.150511436313694
-0.01644920684188446
-0.006747490482227163
0.02319669744312084
-0.03095014455009702
-0.002143646988586136
0.2456273420917239
-0.2616000067453013
-0.9587658942707771
0.001367634216674012
-0.1594556167002716
-0.1230264152229372
0.0944741303125881
0.7224252036868676
0.7289680475871207
-0.144724415657501
0.6747179449392554
-0.5743694858986658
-0.2118318175562725
0.3985305105244472
0.6956285851875849
0.02237884631630251
0.2418276785753516
-1.074919542707492
-0.9504351134749169
0.3026681111539282
0.759807074283294
-0.2092418346592198
0.06588364949864285
-0.7237928371260756
0.9110347249652374
-0.1872418878484685
0.4155483174896196
-0.02778801474425792
0.7711862214423458
0.280673534533978
0.3762099013799465
0.0677659615263087
-0.6587087886890043
0.6587087887066962
0.2146905059586664
0.6959007271921451
-0.05642168001537661
0.3908313659657305
0.3792409924099047
-0.01462793495704525
0.02834687906259635
0.4483755153704735
0.03271258507685219
-0.7386061527646367
0.5339888329065215
0.2007617688377008
0.3005962528678558
-0.1159764791936211
-0.6956285843635686
0.179857466209919
0.7311772584281011
-0.01018831130465121
-0.81364306885425
0.8238313801742136
0.6964008318366404
-0.7919870761175601
0.09558624422845567
-0.753605190474288
-0.150346696734434
0.2118068704798968
-0.06146017299455041
0.07739882750619194
-0.1786826470259195
-0.1123973261933353
0.2910799723200486
-0.008322860919761494
-0.008126340673428174
0.7063014314259359
-0.716489735528972
0.8868891772688404
0.06871094766540294
-0.3108584371030345
-0.5233191998253757
0.8341776370657021
0.1032168687928261
-0.1032168710533061
0.3283342330408153
0.4772582216000881
0.6096770484048127
-1.08693527006681
-0.1940981148830681
-0.585532062533286
0.7796301774010047
0.01269421982886273
0.2212430028813152
0.3763173585906119
-0.2528800651168934
1.015742514645632
-0.5384842963208419
0.6682160240542253
0.9923139554707043
-0.3826369103216342
0.2290319089699508
0.8843726526842607
0.7126374265041269
0.2138784510648904
0.7277930678752667
-0.7809673598945439
0.3412911993171075
-0.2847664045091409
0.2603223694622165
0.02444403676782666
0.8511309403600854
-0.006091230839692103
-0.8450397097320494
-0.7021040153739232
0.7026535312586487
0.5546497796990513
-0.7021040170021156
-0.7126374264967968
0.7026535294796171
-0.03362095114193638
0.9075285424478827
-0.02063936196501636
-0.6812772133940895
0.6122364875472904
0.06904072585455023
0.5386199571228238
0.5384904094696085
-1.077110366606356
0.48751956936788
0.5282229442210503
0.5483685430283866
0.4576796821260403
-1.006048225204942
0.4933138097298735
0.4990001445474538
0.6122364941775413
-0.5256943155431375
-0.4666873498375356
-0.5559965652515749
-0.5140460774564699
-0.1240364825407673
-0.01282735896562394
0.01282735974598136
0.5096295275914514
0.5245544785689534
-1.03860055613005
0.5722332477999073
-0.2708665825138593
-0.8829565312951312
0.3437572341355301
-0.6327485696351242
0.3900430377826091
-8.63542650820996e-05
-0.826553792048494
0.826640146369895
0.4208810374256918
-0.02506912036036709
0.8762000614095817
-0.9452418791161191
-0.8340107443339344
0.05669258396956441
0.7773181604552614
0.5538105805911887
-0.4375654490150959
-0.11624513158698
0.6501830807394877
-0.7293966703748561
0.8862372381890459
-0.826890435252265
-0.0593468027257664
-0.01453916994343503
-0.7904546224677201
-0.1112868324779074
0.7141983556093922
-0.6029115231406194
-0.9414965815030267
0.9269574113225504
-0.732961545896624
0.6882261524195428
0.04473539351215473
-0.8012426381361989
0.02785235187915871
0.7733902863489137
0.06189797651073556
0.04131889453063731
0.4329051964188343
0.05900465286909893
-0.8500068709249815
0.7910022179567645
-0.6458105373513086
0.5932796934644887
0.8890563809180272
0.07356280060091228
-0.9626191815561704
0.05504563928983013
-0.05050430830950723
0.3792399382478031
-0.3818358337052777
0.0655579537300358
0.840502952318306
-0.8405893092712076
-0.7325316848171949
-0.8129850551549209
0.02253043246953873
-0.167683052966392
-0.8477870329976056
0.02089659203993401
0.6227186327642679
0.05199931403684546
0.01893057386406943
0.5348800010884726
-0.8158426891847141
0.8436950445317372
0.5657089572020397
-0.8516229161564944
-0.8679337791324223
0.03959476698565925
-0.02968877163055825
0.8338766021474675
-0.8041878304770471
-0.02114689321177173
-0.7622204543767769
0.5442830409640258
0.1521177948059882
-0.01803391463027971
0.8942339754139425
0.9836499967279715
0.8612613724052119
-0.8403647828055116
0.1477698293803716
-0.1477698307713295
-0.1175329828765805
-0.4642527693309206
0.02668731717875726
0.2711190966348219
0.03154901485238451
0.3862894063688836
0.8730870839036059
0.007931956782566578
-0.01625481033092878
0.6585935309043626
0.3414064691143558
0.7836006322228969
-0.5836900841626532
-0.7780713760467632
-0.8102790575144058
-0.6799477384175661
0.6799477384248791
-0.1682368722344211
-0.1551847312451971
0.6020485475056301
-0.8112788096553796
0.2092302621774698
-0.4940621043143997
-0.5688404560988591
0.2780001543632834
-0.9719174836312454
-0.8985886074720001
0.8392417972687746
-0.8181935180011418
0.8407239512715138
0.6484893007504737
0.1343872919750086
-0.782876592743173
-0.7655436645599661
-0.1464354785647659
0.7253573839383881
-0.5789219054031515
0.02550152633355857
-0.01200677948605857
0.01552252133998801
-0.003515740918122974
-0.352324055549945
-0.1119287103398943
0.8800487041988458
0.7410395465567906
-0.2397815914953932
-0.5012579555855681
0.6247944186160167
0.6857596159361744
-0.4710691113923747
-6.359648269487449e-05
-0.2854428115068257
0.01180790329175695
0.7489981363621853
-0.7608060394660912
-0.3234281808107801
-0.07221412430112358
0.07624638863370162
-0.967724097141445
0.1226843891472456
-0.6768915140589146
0.05439702338979927
0.639842163005989
-0.6942391864199978
-0.7563044785073088
0.07941296445109455
0.5893760045492634
-0.661590128767617
0.1566749832949693
-0.335357631026059
-0.7722610276494141
0.006717363041146955
0.3711060316771314
0.5997662992876787
-0.02606989777734161
0.02027260482568759
-0.02027260565094789
-0.01957483752806732
-0.05136738212471707
-0.2333990149942882
0.0236851800095692
-0.01575324669947305
-0.7202617162448856
0.2793719221051496
0.6787531611543819
-0.6896411136246607
0.01088795266990725
-0.5955049603912781
0.6499019792232686
0.65461575161698
-0.06523974571877732
-0.6307686053892082
-0.125535876101086
-1.050058668145016
0.01119412684811844
0.1365757057759419
-0.7084538138843699
-0.7420554423557759
-0.7639875270980688
0.3660674154594274
-0.4054622754960196
0.4644633918161858
-0.05900111616834978
-0.6691922451000335
-0.03926156873445969
0.4999251178576546
0.7306845795925607
-0.2355192542934555
0.1124928399303725
0.9610067368466779
0.4464900445708613
0.1321387337497985
-0.5786287783834377
-0.6769110481985551
0.007718805320309046
-0.0444580617218991
0.03245126996262228
0.6372704930779456
-0.7759004965222748
-0.002503133312253492
0.002503133120660044
-0.6002754674866945
0.6497415020424013
-0.04946603463046568
-0.6579804770001061
-0.1138044408966816
-0.6717490363815852
0.05708458025036774
0.6079479298764013
-0.1376524816781087
-0.8181845150891199
-0.5697715005493401
0.5721476882044294
-0.00237618746169855
0.6296155444367693
-0.6187275959028438
0.3224298470286878
0.2136009943533341
-0.5360308413818566
-0.1047849477457131
-0.6022794091518285
-0.09195977858712573
-0.1537854189494506
-0.5126869243581672
0.4043240190631823
-0.4991352543955883
0.1261589853807313
0.6787559479664506
-0.8049149332987967
0.5991584907562273
-0.3731069932523142
-0.03235528642564407
0.06385559638795547
-0.5765425230016999
0.5513562138402139
-0.04041582329250706
-0.5109403906718192
-0.3130149462158516
0.3056610002797571
0.007353946777375509
0.4512132493138373
0.1210199981673676
0.05233634264180293
-0.3164485978037586
0.1574669833458832
0.1589816146282228
0.2483050347690563
-0.01614106580362287
-0.2956933371189528
-0.3121606372040444
0.3547002398108238
-0.04253960075721178
0.7909004116748581
-0.6282782278186344
-0.02970224947162134
0.4994336865027137
0.2854886366806978
-0.5252702277408758
0.5774480362354433
-0.5774480362351186
-0.2897793910207879
-0.5865040101484784
-0.2955424777199903
-0.5865040103407326
-0.5965517615948258
-0.838479355032451
0.1699312165318877
-0.6015909030209737
0.8211902014889443
-0.003262099057577446
0.1182484395515554
0.4815178612407015
0.09677071329175112
0.1858295536067482
-0.0362875940624169
-0.149541958388982
-0.02944322395624146
0.590161870890603
-0.9424397828163639
0.4191205794422544
-0.006567697218089303
0.0009115452179818088
0.005656152791464088
-0.6441616516948295
-0.1321219280580745
-0.4668293761282059
0.5989681120400199
-0.5035046706395796
-0.317966506497306
-0.2585760023710169
-0.2721980425486959
-0.1114940907893625
0.1114940911434479
0.1535838086376199
0.05822306455561881
0.1970236836975102
0.4483223181622968
-0.5694616905930946
0.1026323108736237
0.2537546721370744
0.4663927361557685
0.5336072644869848
0.6456160315231801
0.08329995291041023
0.001367938387789558
-0.08466788992050406
-0.2771142420306644
-0.5410702731248371
-0.5464349844921935
0.114809338174411
-0.1266442006301423
0.01183486287089952
-0.1056383691783018
-0.3853513859054691
-0.05011106636881685
0.6580590134198064
-0.4994723061098851
-0.1446893455420091
-0.3263273548140662
0.2859683187341593
0.1290496097062873
-0.6136310533355563
-0.2045244739268552
-0.262956524027263
0.001356533338743695
-0.4209958578117185
0.322784330778368
0.09821152735466453
-0.091371745673048
0.2917263136721051
-0.8959409696772794
-0.4573727347562452
0.6286157870611268
-0.7732300818234399
0.66844513411794
0.3403270564884032
-0.1251122993104231
0.2242178135056035
-0.09910551492639667
0.03117437976660495
-0.5861943221177315
0.02873777451742936
0.557456547358137
-0.9006158020662072
0.547780707203397
-0.6653136900415647
-0.1031979893019997
0.1094207399941128
-0.109420742551311
-0.3165121957459204
0.3589112324110326
0.02032870080781933
0.02258706884938357
0.06071287096764062
0.504422626537134
0.6678146965963374
-0.737525959779012
0.0263969195649271
0.01977558171851093
0.0004970172397621391
-0.006485638918276538
0.006485639583427518
-0.4099570080623574
0.5309770045465798
0.01574572107501038
-0.01574572095518339
-0.7926714415137703
-0.06037861257960192
0.1222765829808802
-0.4524334343119032
0.5550657431855199
0.4504372305246305
-0.4999032613945223
0.1502051574078435
-0.1502051584065588
0.04141703908585064
-0.01307015586490601
-0.04171351069003121
-0.9757930142971116
0.5386754378237546
-0.4689581289889959
0.04131889254037903
0.5151903737568312
0.03047648730570742
-0.5456668612603881
-0.6164261774006033
0.1169538718339802
-0.3291606239926527
0.01360147681489531
0.3155591465049228
-0.1549403414059949
-0.0805789235002424
-0.5409934606055669
-0.04520085606311774
0.136575707053339
-0.04086475278697553
0.03836161529284834
0.08121150831318069
-0.08121150522890182
-0.5268658986100452
0.4843262878327084
-0.4148718923094447
0.1612958952736478
0.6223047369916408
-0.0971109174612852
-0.004750079810508289
0.00475007967002738
0.5329883732704922
-0.07875104976193444
0.006203867929811395
0.02715496683424039
0.03483326654719065
0.6886381027071805
-0.7673891526454819
-0.659790167053537
0.6300879192930766
-0.110046872407181
0.3139115528817064
0.7455402322146162
-0.01957483633108237
-0.2653023240377148
0.1493258524572086
-0.7446023306505252
0.4837754460367594
-0.426259063270182
-0.101235796769222
0.003289582796511597
-0.01457419417920372
0.02505313749025488
0.4119535800258854
-0.1215834467382597
-0.3893569442819166
0.6290405493866015
0.01931297887350367
0.009022189954174784
-0.009022189818841675
-0.3527782782454731
-0.07854357515691596
-0.5603020330706578
0.5570399338351762
-0.2375096221818247
0.4647157816965308
-0.1506520405814634
0.7309955595006692
0.6695748322326479
-0.0408647539515825
-0.6171911214908263
0.5607817816629902
0.2820149121343362
-0.2771151676767078
-0.004899743462900645
0.5387161764457266
0.09344372610346427
-0.03881218338954887
0.1962893012052979
-0.1574771173302609
0.1200236932058516
-0.1200236906460552
-0.8586198458094926
0.00243532311938326
-0.1133628160091577
0.1405177817002723
-0.1315350456865823
0.1315350462679344
0.01977558747653849
-0.02432492175846275
0.6704547535416293
0.06072250544554878
-0.3226722989233213
-0.06267908654324028
-0.4712938198206323
-0.04431244293420489
-0.1513210237584304
0.1513210247450399
-0.04325084521865729
0.1436571172892988
-0.1436571180503957
0.1363622552796535
-0.1363622535113801
-0.3161673601160241
-0.1145279356266436
0.2260185066643114
0.1031611211197893
0.03478845939518349
-0.8212367931610897
-0.1980310997822925
0.1699199585625519
0.02165635685180747
-0.2643208628342531
0.1261970703865236
-0.1261970710543244
-0.4143268034522847
-0.08480844889863889
0.2357652479651508
0.002815386053891041
0.04034675496932882
-0.5446362522553512
0.5782572033781388
-0.03232396710598341
-0.01092687641781878
-0.02473283162678029
0.01166266775661866
0.006548024409472531
-0.1847305302796243
0.1781825059373498
-0.1079816739021348
-0.2273759558214103
-0.144401017382286
0.1444010181900288
0.07242698387164045
-0.07242698352928843
-0.01897354027052527
-0.1085677029115371
0.1275412426044422
0.2340820454856042
-0.1834357593001185
-0.02288117332775264
0.0233781820331471
-0.1288603782174816
0.6131866664066588
-0.03906711553096669
0.4262053730669451
-0.04176405968298953
0.0649607470307465
-0.1531043048176453
0.1531043061379073
-0.63657590763381
0.3081501170564159
-0.07911820835501894
-0.2341410733561334
0.003657195559751882
-0.1216183843926976
0.1619651402460757
0.1947250326870483
0.09635493681666694
0.09564967212435734
-0.06081640578646037
0.07316096792226806
0.04164836940481732
0.06416764364751915
0.1057523189065364
-0.1000502370207578
0.212543092388762
0.01152532740224011
-0.115803475106359
-0.1012212326567126
0.09625556052249942
0.004965671223852245
0.01075339392314842
-0.02245108733899335
0.03735444399734532
-0.03735444394813237
0.07467091618544232
-0.05533725260478744
0.05533725286148918
-0.2243688492619384
-0.05084272683405648
0.01178969692243376
-0.1031421170732057
0.01633856128886166
0.1088204782339113
-0.1088204786832006
0.2929365603080215
-0.2708203807232258
0.1628387032254562
-0.05062942717681519
-0.2201909527927809
-0.01685107480795216
0.01685107455271437
0.3675588507107894
0.2851719609705042
-0.5279991786604891
-0.09392703370298393
-0.03271716700443365
0.5288547406413088
0.2093492004568573
-0.1689473864183809
-0.3809134644434662
0.07658787084263301
-0.1472098515517617
0.1868199451878348
-0.03961009342264481
-0.06717211723991222
0.06717211696803838
0.8221281030600552
-0.5603295195874867
-0.003705744691700233
0.0144591395426497
-0.02004094923895742
-0.2873066606734985
-0.01746004815406387
-0.01286597714571991
-0.1321474500893283
-0.5723049078445809
0.5561022704191948
-0.5686573112563856
-0.006920003075992024
0.09906485323112675
-0.001783286368536448
0.01674205375301987
-0.1672508006852269
-0.3361677383008987
0.2330256211420986
-0.05404608333135952
0.03507254152428965
0.1322124031466014
0.1734485978474297
0.3419769639621322
0.2759544181103823
-0.2777377049097312
-0.06285962095740814
-0.1550942549539398
-0.2205396012760215
0.07454944932224274
-0.01038180455572144
0.2135782494769356
-0.1968361961498455
-0.08623868548390204
0.1593996557848018
-0.3550563160726535
0.2081065462795694
-0.1917679850998472
0.08964667035029492
-0.4790036108847117
0.1739539664549719
0.1706913717192738
-0.2569300619351461
0.07319857987321569
-0.1948366272614163
0.1773765794962988
0.01737659010647889
0.1420230650617983
-0.03959152025730205
0.0657923064138035
0.4671960672909944
0.020503367000036
-0.08369138107845026
0.05527042239173514
0.1259435833864556
-0.260149696649999
-0.2309517273165818
0.5597217387846146
0.1569885712557151
0.07877667737479563
0.07484338621248966
-0.03107587506607689
-0.001647345218456021
-0.00325239026736927
-0.0325967959625543
0.17069114543992
-0.1776111489208504
-0.05863824621955017
0.01967244189462939
-0.1471066349305159
-0.05281356638218503
0.1539048355783129
0.2770501387152485
-0.04058640806140208
0.01001532297102312
-0.2551639791129372
-0.1314216476216018
0.2362493250343322
0.1786129976739778
0.1295371186947433
0.02181026046688719
0.08847412379318492
0.05225539388743105
0.4521672326878639
0.01649100255277207
0.09794844577352468
0.04297860063723084
0.07230868572194107
-0.1152872853280731
-0.2428272155851402
-0.2004232634017726
-0.01976769137271735
-0.2019534692549011
0.2749316663195143
)
;

boundaryField
{
    FrontBack
    {
        type            empty;
    }
    Top
    {
        type            calculated;
        value           uniform 0;
    }
    In
    {
        type            calculated;
        value           uniform -1;
    }
    Bottom
    {
        type            calculated;
        value           uniform 0;
    }
    Out
    {
        type            calculated;
        value           nonuniform List<scalar> 10(1.03588811267357 1.064314272299853 1.022683915087068 1.021536754943645 0.9961700904712518 1.013046222107149 1.034184006538144 1.06290256041741 0.8672274313330975 0.8820464878798928);
    }
    circle
    {
        type            calculated;
        value           uniform 0;
    }
}


// ************************************************************************* //
