/*--------------------------------*- C++ -*----------------------------------*\
| =========                 |                                                 |
| \\      /  F ield         | OpenFOAM: The Open Source CFD Toolbox           |
|  \\    /   O peration     | Version:  2412                                  |
|   \\  /    A nd           | Website:  www.openfoam.com                      |
|    \\/     M anipulation  |                                                 |
\*---------------------------------------------------------------------------*/
FoamFile
{
    version     2.0;
    format      ascii;
    arch        "LSB;label=32;scalar=64";
    class       volScalarField;
    location    "38.6";
    object      p;
}
// * * * * * * * * * * * * * * * * * * * * * * * * * * * * * * * * * * * * * //

dimensions      [0 2 -2 0 0 0 0];

internalField   nonuniform List<scalar> 
808
(
0.116274
0.0282784
0.0635112
0.115942
-0.254506
0.0233786
0.0207315
0.0371117
-0.150818
-0.0356381
0.0661961
-0.16957
0.0390464
0.0211106
-0.159785
0.0300482
-0.149934
0.0164041
0.0428413
0.0112175
0.0366949
0.387096
0.088674
-0.00233409
0.462716
-0.111214
-0.072777
0.011342
0.00979202
0.025204
0.0151741
0.0184564
0.030241
0.0088225
-0.0992992
0.623327
0.0278441
0.0311184
0.0305173
0.0299961
-0.0614792
-0.0690985
0.0517831
0.0441845
-0.0879087
0.104652
0.0280087
-0.00530064
0.0326729
-0.193806
0.0222625
0.0128595
0.0618968
0.000257391
-0.0694181
0.0305883
0.012095
0.0503681
-0.0356238
0.0237191
-0.328487
-0.0109408
0.038866
-0.201855
0.0451752
0.0631027
-0.326046
0.0353071
0.0613549
-0.305791
0.0354308
-0.34057
0.0315887
0.0275888
0.170078
0.0361593
0.00584785
-0.0517361
0.0277719
0.32515
-0.0721563
0.0250112
0.0440751
0.262791
0.0424314
-0.0104767
-0.387495
-0.0905675
0.0355098
-0.118062
0.0376867
-0.115873
0.264584
0.172297
0.0573333
-0.34423
0.0364402
-0.0666222
-0.124383
-0.295567
0.023517
0.0125855
0.0428321
-0.00264503
-0.0822889
0.0757065
-0.0892497
-0.0381117
0.0278726
0.0115846
-0.0336566
0.344256
0.0336571
0.000954252
0.0309314
0.450419
0.0234128
-0.29269
0.0345095
0.0576577
-0.254053
0.0519494
0.0255818
0.0576972
0.129704
-0.03557
0.101037
0.0397953
0.0220182
0.0842587
-0.398667
0.0409508
-0.0471098
0.142267
0.0360202
0.0245264
0.00987517
-0.0129728
0.0324244
0.0164496
-0.273596
0.0454191
0.0497909
0.0356059
-0.00983451
-0.0469225
0.0942135
0.152129
-0.204676
-0.0627882
0.0352797
0.353132
0.0359973
0.539957
-0.289449
-0.0648511
0.0252059
-0.122146
0.0214006
-0.0766964
-0.336022
-0.282235
-0.346501
0.0291764
0.0778519
0.0397827
0.0296989
-0.371624
0.0300735
0.0480303
0.0430714
0.174465
-0.0577749
0.10709
0.0259741
0.0679834
0.0871273
-0.177339
0.0330854
-0.369914
0.0491167
-0.114175
0.0260434
0.256117
-0.0895813
0.133889
0.0377358
-0.16705
0.0468136
-0.119486
-0.273698
-0.0641298
0.0341302
0.0770849
0.0258512
-0.238904
0.0323501
0.040435
0.0139893
0.0968014
0.0662589
0.0403176
0.0319047
-0.337208
0.379839
-0.253902
-0.336747
0.00959948
0.0674068
0.0341626
0.0171563
-0.420537
-0.415538
0.0280322
0.0226825
0.0278953
-0.349248
-0.0224253
0.0282529
0.0403552
-0.00634517
-0.0729034
0.038594
0.0384477
0.0114883
0.0311885
0.142446
-0.481864
-0.0182548
0.01379
0.133905
0.017704
0.0209172
0.0120462
-0.047878
0.060852
0.0189042
0.0178471
0.0250434
0.0279904
0.0217573
0.0105032
-0.00686399
0.0117671
0.0068148
-0.00752709
0.0036839
0.0175866
-0.0144203
-0.0235339
-0.346784
-0.00387515
-0.0300341
-0.0828816
-0.00791451
0.0311966
0.028375
-0.00291382
0.0286941
0.143867
-0.0351045
0.0134563
0.0198351
0.0577291
0.0543138
0.0092833
-0.0202356
0.0100303
-0.0164401
0.0322939
0.0111623
-0.416223
0.28788
0.0228619
-0.102911
0.0183351
0.0228455
0.0120026
-0.277853
0.262396
0.016033
0.0505731
-0.00746399
0.0847924
-0.191508
0.0110352
-0.0231716
-0.0578048
-0.0548053
0.0167698
0.0301663
0.0142427
0.00723318
0.0261506
-0.0440601
0.0165395
0.043949
0.0751696
-0.0480483
-0.0490915
-0.00369763
0.0150919
0.0218287
0.0320101
-0.536855
-0.0568838
0.0678815
-0.0267541
-0.201807
-0.0885993
-0.0406062
0.0264064
-0.345657
0.123744
0.149136
0.0317609
0.0268647
-0.0240531
0.008341
-0.242368
0.0284403
-0.00513199
0.0361438
0.0143043
-0.012885
0.0344844
0.00301022
-0.00334236
-0.0146137
-0.310937
0.00875595
0.04714
0.0842414
0.0326854
0.0274935
0.24357
-0.031395
-0.179735
0.544559
0.132604
0.0126633
0.0365464
-0.0755919
-0.026431
0.0340871
0.0370856
-0.0111989
0.016122
-0.026993
-0.220239
0.0509378
0.12272
-0.0045555
-0.293979
-0.345954
-0.470797
-0.351761
0.039281
0.0335007
0.0140936
-0.0253556
-0.0242292
0.0101726
0.0257035
-0.00230925
-0.529215
0.0778969
0.0250623
0.0498914
-0.18058
0.0486213
-0.0494553
0.109283
-0.373644
0.0758167
0.0264009
0.0671948
0.053045
-0.321811
0.0430198
-0.297306
0.0252407
0.0413603
0.0532517
0.0279023
0.0511892
-0.146842
-0.357298
0.016082
0.00552775
-0.245698
0.00872621
0.0214128
0.0312988
-0.00929026
0.0260145
-0.271498
0.0267134
0.0415993
0.0270889
-0.389765
-0.18468
0.0750522
-0.0304291
-0.0422467
-0.0307671
0.414764
-0.110772
0.0322558
-0.0776264
0.037523
0.0511382
0.031143
0.0541144
-0.000166445
0.114761
-0.0363504
-0.00747729
-0.00536794
-0.0068183
-0.0108282
-0.00807643
0.0360836
0.111291
-0.0696681
0.030016
0.00770172
0.0372138
0.00323825
0.0407506
-0.401838
-0.141668
0.00778405
0.0259844
-0.106105
-0.421719
-0.00830551
-0.103514
0.053293
0.0305852
-0.207699
-0.272204
0.261519
-0.327447
-0.478969
-0.128256
-0.12181
0.0392899
-0.457538
0.34892
-0.0751629
-0.345868
0.0218402
0.113053
0.554169
0.00426925
0.000152787
0.0641398
-0.12594
0.00629492
-0.230033
-0.243077
-0.0129656
0.061124
-0.0584277
-0.283477
-0.33384
-0.158853
0.0243693
0.0322312
0.108751
-0.00463278
-0.0739019
0.0966809
-0.10349
0.0321999
-0.192886
-0.296072
-0.0296006
0.010604
0.0318138
0.029813
0.0765365
-0.0209288
0.0127946
-0.485624
0.446146
-0.299032
-0.323996
-0.00527433
-0.000263726
-0.306656
-0.28276
0.115067
-0.35343
-0.0506424
0.861397
0.0315159
-0.368958
0.0249707
0.05092
0.0593887
-0.488021
-0.294612
-0.328356
-0.0127583
-0.133118
-0.375186
0.015797
0.00627007
0.120005
-0.335478
0.0499275
-0.524789
-0.315448
-0.378259
0.0593098
0.0382423
0.0356624
0.122178
0.119714
0.013984
-0.318218
0.295701
-0.0590493
-0.0163963
-0.457952
-0.520677
-0.349729
0.0616971
-0.364843
-0.0641366
0.00724531
-0.0415474
-0.191408
-0.252386
0.0311354
-0.338653
-0.242964
0.0158845
0.0146708
-0.212321
0.0181761
0.0549686
-0.401033
-0.379642
-0.104743
0.115107
0.0359202
-0.351585
-0.279602
-0.421945
0.0350333
0.061544
0.117391
0.00112911
-0.466838
-0.286601
0.118887
0.0270474
0.00716864
0.0438568
0.0362497
-0.324749
0.0525625
-0.294677
0.0418716
-0.153581
0.0293595
0.00671994
-0.35748
-0.443468
-0.0016584
-0.500815
-0.483282
0.048203
-0.0345667
-0.278176
-0.02896
-0.33001
0.0371587
0.0982953
0.0553806
-0.102606
-0.0574939
0.0546439
-0.419232
0.0101856
-0.34616
0.0263139
-0.34965
-0.489951
0.0867075
0.290888
0.443585
0.0410555
0.00237583
0.00535999
-0.356081
0.652266
0.0348692
-0.160117
0.0185481
-0.104767
0.0742914
0.501235
-0.364727
-0.0163578
-0.0134
0.0181091
0.0182502
-0.441169
-0.303532
-0.397615
-0.275205
-0.305067
0.0175013
-0.391206
-0.0220401
-0.236256
-0.274885
0.542583
0.610935
-0.250637
0.093085
-0.289824
-0.0121645
0.13968
0.438526
0.0961635
-0.338672
0.105731
-0.482324
0.00519237
-0.174001
0.00492866
-0.311066
-0.241626
0.00726731
0.00359379
-0.335665
0.426149
0.688072
-0.372045
-0.286172
-0.355226
-0.026565
-0.300503
-0.274773
-0.108092
-0.337863
0.777915
-0.3325
0.73071
-0.437558
0.318785
-0.335111
0.0278577
0.193839
-0.482689
0.190457
-0.217485
-0.29195
-0.319833
0.883045
-0.298547
0.200135
0.135362
0.632777
0.114271
-0.24226
-0.253756
-0.163413
0.0217155
0.115755
0.496951
0.0190785
0.00612758
-0.278643
0.153624
-0.14331
-0.413549
0.0535012
-0.149837
-0.194555
-0.119452
-0.387793
0.0261993
0.0984284
0.0279443
0.0952445
0.102373
-0.32044
-0.322154
0.0743666
0.0366833
-0.435269
-0.488499
0.207113
0.210231
0.0890397
0.691712
-0.103028
-0.0974515
-0.353637
-0.290496
-0.0803652
0.105895
0.776276
-0.426423
0.354591
0.021954
-0.410897
0.170506
-0.0430482
0.368817
-0.113626
0.0370742
-0.34219
-0.110279
0.166997
0.806614
0.328461
0.77848
-0.439896
-0.286561
-0.440239
0.191232
0.282474
0.0815576
0.40279
0.102945
0.499364
0.297849
0.0873292
-0.214529
0.00842626
-0.241226
0.889679
0.409016
0.676483
0.516542
-0.233899
-0.400587
-0.283897
-0.328609
0.0677903
-0.436342
0.0753485
0.613709
-0.411466
0.00712524
-0.330595
0.203415
-0.327061
-0.354463
-0.157705
-0.271239
-0.308269
-0.38995
-0.352539
-0.121275
-0.440132
-0.163706
-0.156712
0.165435
0.638424
-0.185789
-0.331144
0.844962
-0.330228
0.270197
-0.210235
0.360962
0.0827447
-0.428072
-0.375973
0.471635
-0.306017
-0.295313
0.168756
-0.245483
0.0074543
-0.287
-0.0880193
0.053355
0.561593
0.781918
-0.283195
0.218741
-0.305501
0.829082
0.014965
-0.289286
0.00958184
0.758089
0.223942
-0.296898
-0.277698
0.442515
-0.184452
0.0584641
0.37796
0.268751
0.288779
-0.221999
-0.230431
0.691744
)
;

boundaryField
{
    FrontBack
    {
        type            empty;
    }
    Top
    {
        type            zeroGradient;
    }
    In
    {
        type            zeroGradient;
    }
    Bottom
    {
        type            zeroGradient;
    }
    Out
    {
        type            fixedValue;
        value           uniform 0;
    }
    circle
    {
        type            zeroGradient;
    }
}


// ************************************************************************* //
