/*--------------------------------*- C++ -*----------------------------------*\
| =========                 |                                                 |
| \\      /  F ield         | OpenFOAM: The Open Source CFD Toolbox           |
|  \\    /   O peration     | Version:  2412                                  |
|   \\  /    A nd           | Website:  www.openfoam.com                      |
|    \\/     M anipulation  |                                                 |
\*---------------------------------------------------------------------------*/
FoamFile
{
    version     2.0;
    format      ascii;
    arch        "LSB;label=32;scalar=64";
    class       volScalarField;
    location    "1243.5";
    object      yPlus;
}
// * * * * * * * * * * * * * * * * * * * * * * * * * * * * * * * * * * * * * //

dimensions      [0 0 0 0 0 0 0];

internalField   uniform 0;

boundaryField
{
    FrontBack
    {
        type            empty;
    }
    Top
    {
        type            calculated;
        value           nonuniform List<scalar> 
15
(
142.2725116830182
133.5640051371857
138.0687303490495
144.3981664354986
159.7686434053077
131.3682650835219
140.1195647925493
135.3541219703888
153.4332683469963
135.7447536312932
136.0910897612343
136.7743607930964
125.2416505561027
132.9017771516845
123.9472182327976
)
;
    }
    In
    {
        type            calculated;
        value           uniform 0;
    }
    Bottom
    {
        type            calculated;
        value           nonuniform List<scalar> 
15
(
155.5655145425593
158.1120737117584
141.0953232828087
142.0732176268813
141.1850016277933
148.4485728444915
142.7075464494886
143.1682053437529
143.4236282534009
134.0582476631121
125.7349639785101
141.5549624495167
122.4124343115313
123.4918025549168
124.1420430437381
)
;
    }
    Out
    {
        type            calculated;
        value           uniform 0;
    }
    circle
    {
        type            calculated;
        value           nonuniform List<scalar> 
32
(
56.35730156509189
22.02509684205723
65.30713622592475
24.06436076239419
19.24858538915618
56.2015501622981
56.80396442940689
24.18662804949302
22.29017281642445
65.52484263739804
40.18712942293075
63.03883289873689
50.32526733487902
13.82325956249271
23.57180682700844
19.2080234440397
38.89938316589367
59.6117739980505
61.02914666386838
25.44241094819077
65.73602525169466
63.80376653129355
62.96831523369822
59.90255920060741
64.1166362561415
45.99087675712237
66.37703576027364
32.12414426691004
37.96948080440161
55.72759187896695
21.18387314940537
43.12646827932785
)
;
    }
}


// ************************************************************************* //
