/*--------------------------------*- C++ -*----------------------------------*\
| =========                 |                                                 |
| \\      /  F ield         | OpenFOAM: The Open Source CFD Toolbox           |
|  \\    /   O peration     | Version:  2412                                  |
|   \\  /    A nd           | Website:  www.openfoam.com                      |
|    \\/     M anipulation  |                                                 |
\*---------------------------------------------------------------------------*/
FoamFile
{
    version     2.0;
    format      ascii;
    arch        "LSB;label=32;scalar=64";
    class       volScalarField;
    location    "780.5";
    object      yPlus;
}
// * * * * * * * * * * * * * * * * * * * * * * * * * * * * * * * * * * * * * //

dimensions      [0 0 0 0 0 0 0];

internalField   uniform 0;

boundaryField
{
    FrontBack
    {
        type            empty;
    }
    Top
    {
        type            calculated;
        value           nonuniform List<scalar> 
15
(
142.2798329970859
133.5814009230488
138.0704750743193
144.4102331990484
159.7730045935883
131.3688667331597
140.1329590624804
135.3625271503707
153.4411305170146
135.7413182933446
136.0972585088412
136.7693211759527
125.2550951279534
132.907148389928
123.948571757118
)
;
    }
    In
    {
        type            calculated;
        value           uniform 0;
    }
    Bottom
    {
        type            calculated;
        value           nonuniform List<scalar> 
15
(
155.5652683250985
158.1157702599677
141.0839720438437
142.0543003130027
141.1790720432484
148.4314989987122
142.699670570497
143.1578480338511
143.4235928589356
134.0545396838397
125.728498605001
141.5513967341531
122.4091105453914
123.4903459968384
124.1345518936192
)
;
    }
    Out
    {
        type            calculated;
        value           uniform 0;
    }
    circle
    {
        type            calculated;
        value           nonuniform List<scalar> 
32
(
56.33326462397567
22.2471360687079
65.33453345828944
23.44297560988567
19.09422366337024
56.14328886445922
56.80491969050323
24.07098124879769
22.39829242584963
65.55929881360869
40.14203842254408
63.05620504255616
50.32014186585682
13.83243768186907
23.77018596600712
18.47527668749321
38.91950789369936
59.59175528272251
60.98167740352404
24.4424868435248
65.6997416884647
63.8442764956615
62.94147086374689
59.94998578985764
64.07595572510834
45.91585781109595
66.34429912500977
32.01851755204484
38.05370469001105
55.78453382775539
20.96939178733513
43.18914177597085
)
;
    }
}


// ************************************************************************* //
