/*--------------------------------*- C++ -*----------------------------------*\
| =========                 |                                                 |
| \\      /  F ield         | OpenFOAM: The Open Source CFD Toolbox           |
|  \\    /   O peration     | Version:  2412                                  |
|   \\  /    A nd           | Website:  www.openfoam.com                      |
|    \\/     M anipulation  |                                                 |
\*---------------------------------------------------------------------------*/
FoamFile
{
    version     2.0;
    format      ascii;
    arch        "LSB;label=32;scalar=64";
    class       volScalarField;
    location    "8";
    object      p;
}
// * * * * * * * * * * * * * * * * * * * * * * * * * * * * * * * * * * * * * //

dimensions      [0 2 -2 0 0 0 0];

internalField   nonuniform List<scalar> 
808
(
0.0921674
0.0024863
0.0304478
0.0913041
-0.264115
0.00273034
-0.00294381
0.0189683
-0.163741
-0.0582015
0.0382733
-0.179989
0.0165447
-0.00379469
-0.294515
0.0178219
-0.30121
0.0172438
0.0289997
-0.0179523
0.0430003
0.358811
0.056466
-0.0336698
0.437427
-0.194924
-0.0927094
0.0081674
0.0135033
0.0103701
0.0124361
-0.00802484
0.0170313
0.010089
-0.120786
0.600343
-0.00352182
0.0174434
0.000490155
0.0156767
-0.086006
-0.0920514
0.0193446
0.0148157
-0.212841
0.0708797
0.0121834
-0.0234861
-0.00736287
-0.205178
0.000623913
-0.0119104
0.0293232
0.00596067
-0.101124
-0.00299815
0.00681629
0.0386889
-0.0554262
-0.0111483
-0.353615
-0.0306527
0.0317036
-0.222038
0.0229787
0.0341438
-0.321188
0.0171596
0.0258288
-0.314129
-0.000815059
-0.349034
0.0106399
0.0120832
0.153022
0.010648
-0.0247513
-0.0812678
-0.000195002
0.29656
-0.135875
0.00938916
0.0227713
0.242848
0.0150841
-0.0469438
-0.391776
-0.119815
0.00645506
-0.212545
0.013625
-0.137423
0.234179
0.138982
0.0214547
-0.327051
0.0142242
-0.146778
-0.145757
-0.292132
0.00234096
-0.0185905
0.0138628
-0.0386444
-0.124073
0.0421815
-0.245865
0.0125083
-0.0039557
-0.00484729
-0.0860427
0.314394
0.00531412
0.0275698
0.0148016
0.42731
-0.00792017
-0.301225
0.0116315
0.0331153
-0.325369
0.0208183
0.00240182
0.0345964
0.0982332
-0.0650649
0.0778725
0.0314346
0.000251081
0.0489772
-0.360697
0.0163461
-0.0772307
0.10992
0.0186762
-0.010051
0.0498521
0.00378311
0.0192429
-0.0151345
-0.301972
0.0228378
0.0398513
-0.00255663
-0.0463825
0.0537053
0.0691828
0.128307
-0.0926341
0.00874905
-0.00395487
0.3267
0.00432431
0.514905
-0.300976
-0.11392
0.00114713
-0.239296
0.0393644
-0.133911
-0.337069
-0.300999
-0.344051
0.00435602
0.0460274
0.0106826
0.000658277
-0.357701
-0.00308763
0.0253278
0.0132223
0.141745
0.055262
0.0892511
0.00198498
0.044624
0.0505363
-0.192107
0.0126349
-0.376093
0.0251934
-0.153605
-0.00388311
0.236051
-0.303358
0.101002
0.00532107
-0.18959
0.0203593
-0.140979
-0.295376
-0.0989186
0.0153688
0.0510506
-0.00474576
-0.283985
0.0089335
0.0247299
0.0101091
0.0616366
0.0451687
0.0192904
0.0179029
-0.348165
0.354367
-0.279981
-0.334349
0.00886585
0.0288916
0.00283137
0.0093086
-0.425278
-0.36736
0.00534283
0.00705555
0.0161179
-0.357999
-0.0504887
0.00689983
0.0317632
0.00686514
-0.0999351
0.022503
0.0220268
0.0098968
0.0144063
0.107794
-0.390327
0.0395574
0.0130274
0.0999608
0.0156863
0.0196303
0.011195
-0.116976
0.0230485
0.0118575
0.00448722
0.00369316
0.0135354
0.00314507
0.000557383
0.0037245
0.0096623
0.000599576
0.00201858
0.00248163
0.00227503
0.00120289
0.0461186
-0.345816
0.00270866
0.00171039
-0.135485
0.00748304
-0.00282341
0.0226433
0.00197597
0.0217349
0.109742
0.0327433
0.00892442
0.0114777
0.068125
0.024772
0.0141752
0.0172822
0.0328725
0.0187007
0.0455646
0.0271589
-0.422198
0.258345
0.0117622
-0.0857008
0.016213
0.0103858
0.0141083
-0.276199
0.245493
0.0225806
0.0293822
0.0185847
0.0608867
-0.197584
0.0182511
0.0584521
0.0739931
0.0270305
0.0492045
0.015992
0.0260803
0.0192158
0.0196532
0.0338343
0.0192965
0.0340842
0.0403467
0.0307502
0.0272566
0.0119849
0.0197784
0.0197928
0.0153871
-0.533546
-0.113733
0.0372565
0.0806009
-0.216833
-0.310117
0.024754
0.0215359
-0.34235
0.0979047
0.124791
-0.000255133
0.00545239
0.0365312
0.0103312
-0.251039
0.0273247
5.17237e-05
0.0199141
0.0197511
0.0192508
0.0213102
0.0450013
-0.0149984
0.0202839
-0.307927
0.0705902
0.0235638
0.0409159
0.0606055
-0.00230975
0.214633
0.0227882
-0.199736
0.521598
0.0559228
0.0080022
0.0197877
-0.0974297
-0.0655166
0.0355521
0.0251742
-0.00522085
0.0239172
-0.0687893
-0.259554
0.0465352
0.0889534
-0.0578649
-0.295262
-0.340863
-0.389227
-0.346552
0.0601095
0.0195774
0.0115293
-0.0010527
-0.0400852
0.00940374
0.0215043
0.00111693
-0.527592
0.0584684
0.0214764
0.0197487
-0.215109
0.0752396
0.00621011
0.0845017
-0.37651
0.0446269
-0.0254303
0.0470462
0.0733953
-0.31541
0.016961
-0.312949
0.00969751
0.0941144
0.0223635
-0.000632469
0.0163533
-0.0526543
-0.366242
-0.00788022
0.00471835
-0.00584199
0.0223649
-0.0146414
0.0158284
-0.0134465
-0.0076481
-0.0714483
0.0047706
0.00146923
0.0125405
-0.347273
-0.134092
0.0458138
-0.0396448
-0.109605
-0.0321965
0.396141
-0.203804
0.00660253
-0.023083
0.0140456
0.031424
0.0167061
0.0695999
-0.0320637
0.0333265
-0.0795591
-0.012651
-0.00213075
-0.00597558
-0.00383069
0.00139123
0.0190726
0.0884986
0.0903766
0.0138595
0.00816972
0.00422728
-0.05639
0.00758787
-0.403077
0.0288606
0.0408525
0.0138289
-0.132649
-0.365078
-0.0271699
-0.11652
-0.0244907
0.0183998
-0.300661
-0.275688
0.223925
-0.340069
-0.478396
-0.149757
0.021127
-0.0490679
-0.377526
0.325665
-0.054168
-0.337767
-0.0094287
0.0503861
0.54017
0.00865091
-0.0202249
0.0318796
-0.0516288
-0.0230653
-0.359976
-0.289802
0.039267
0.0369168
0.066108
-0.289455
-0.340268
-0.23433
0.00480318
0.0372321
0.0750444
-0.0372454
-0.0418658
0.0637075
0.0045932
0.0110661
-0.21341
-0.304406
0.0167674
-0.0669002
0.00596425
-0.00675532
0.0518637
-0.0671054
0.0173792
-0.48767
0.42514
-0.292536
-0.319033
-0.0403052
0.0112781
-0.310329
-0.289549
0.0922573
-0.358811
-0.14873
0.837287
-0.00256921
-0.378035
-0.00589893
-0.0430794
0.0116644
-0.482392
-0.314552
-0.337048
0.00680536
-0.196328
-0.383147
-0.0250804
-0.0333508
0.0896751
-0.343042
0.0141252
-0.52425
-0.327958
-0.38737
-0.0110495
0.00924851
-0.00401466
0.0897566
0.0948143
-0.0361499
-0.309575
0.277147
0.0640996
0.00951897
-0.46135
-0.52094
-0.358593
0.0194429
-0.372119
0.0561325
0.061781
0.0317336
-0.22247
-0.260833
0.0121568
-0.329824
-0.290363
0.00851865
-0.0198148
-0.321079
-0.0219447
0.0180794
-0.40523
-0.365196
-0.128033
0.0852984
0.0110796
-0.353982
-0.298068
-0.365379
-0.137345
0.0246148
0.0809243
0.0044205
-0.393356
-0.299028
0.0863312
0.0169792
-0.122388
0.0262821
0.0364436
-0.334533
0.0224377
-0.299463
0.0384607
-0.328096
0.0490475
0.00755315
-0.366044
-0.455558
0.000302399
-0.497027
-0.484215
0.0334465
-0.0716923
-0.29117
0.00403698
-0.319125
0.0239369
0.0666253
0.0313454
-0.336741
0.0425813
0.0706999
-0.448719
0.0171845
-0.3445
0.0160513
-0.343892
-0.507677
0.0683302
0.260189
0.421051
0.00854514
0.00458028
0.00176489
-0.364086
0.62609
0.00220819
-0.218259
0.0223515
-0.10219
0.0529627
0.471993
-0.371774
-0.0616385
-0.0596236
0.0263853
0.0102557
-0.452424
-0.298635
-0.363708
-0.329481
-0.304652
-0.0140117
-0.386789
0.0479529
-0.269478
-0.309352
0.505687
0.578193
-0.308186
0.0806779
-0.297072
-0.0439997
0.0194382
0.40175
0.00623171
-0.344691
0.0587273
-0.50569
-0.0385892
-0.201109
-0.0259162
-0.315835
-0.276627
0.00771366
0.00639034
-0.345716
0.415503
0.659266
-0.365267
-0.305648
-0.357766
-0.0774582
-0.308548
-0.292909
-0.190739
-0.34511
0.743084
-0.341417
0.713707
-0.439242
0.301334
-0.340387
-0.0107484
0.164044
-0.498802
0.18768
-0.28154
-0.31217
-0.339414
0.852858
-0.30137
0.180636
0.117653
0.614533
0.0943112
-0.35002
-0.283288
-0.191075
0.0116811
0.08203
0.48738
0.0118582
-0.035963
-0.295048
0.116771
-0.154227
-0.324368
0.0266825
-0.321971
-0.191794
-0.155124
-0.393458
-0.00665016
0.0750974
-0.00710816
0.0627528
0.0812158
-0.332834
-0.354265
-0.00141973
-0.0019748
-0.461984
-0.509661
0.172268
0.180988
0.0646273
0.658204
-0.112401
-0.344921
-0.38192
-0.301165
-0.0920112
0.0753893
0.746362
-0.448773
0.343793
-0.0145554
-0.425825
0.140819
-0.0770956
0.354999
-0.162345
0.00370719
-0.35354
-0.11202
0.16076
0.786103
0.308968
0.746189
-0.393275
-0.299052
-0.443293
0.159623
0.255042
0.0483517
0.371269
0.10079
0.475853
0.266313
0.00608711
-0.220247
-0.00788785
-0.332243
0.86223
0.387556
0.641027
0.491943
-0.265816
-0.376502
-0.294991
-0.323487
0.0319893
-0.434972
0.0690303
0.583885
-0.393338
0.0110714
-0.322987
0.172733
-0.329817
-0.367434
-0.182933
-0.28864
-0.341409
-0.363237
-0.362942
-0.146532
-0.443517
-0.16635
-0.347518
0.134465
0.6239
-0.222853
-0.343982
0.81245
-0.343389
0.25656
-0.237436
0.353959
0.0591397
-0.385741
-0.395597
0.437
-0.307586
-0.321811
0.15735
-0.2754
-0.027354
-0.300112
-0.120353
0.0256839
0.542959
0.75713
-0.29938
0.199337
-0.33906
0.801547
-0.0231259
-0.31333
-0.0276696
0.736879
0.194193
-0.320766
-0.291519
0.426269
-0.214587
0.0283306
0.344516
0.240282
0.270395
-0.253953
-0.32791
0.666904
)
;

boundaryField
{
    FrontBack
    {
        type            empty;
    }
    Top
    {
        type            zeroGradient;
    }
    In
    {
        type            zeroGradient;
    }
    Bottom
    {
        type            zeroGradient;
    }
    Out
    {
        type            fixedValue;
        value           uniform 0;
    }
    circle
    {
        type            zeroGradient;
    }
}


// ************************************************************************* //
