/*--------------------------------*- C++ -*----------------------------------*\
| =========                 |                                                 |
| \\      /  F ield         | OpenFOAM: The Open Source CFD Toolbox           |
|  \\    /   O peration     | Version:  2412                                  |
|   \\  /    A nd           | Website:  www.openfoam.com                      |
|    \\/     M anipulation  |                                                 |
\*---------------------------------------------------------------------------*/
FoamFile
{
    version     2.0;
    format      ascii;
    arch        "LSB;label=32;scalar=64";
    class       surfaceScalarField;
    location    "8";
    object      phi;
}
// * * * * * * * * * * * * * * * * * * * * * * * * * * * * * * * * * * * * * //

dimensions      [0 3 -1 0 0 0 0];

oriented        oriented;

internalField   nonuniform List<scalar> 
1171
(
-0.944248
0.944248
0.765232
-1.06064
0.295407
-0.208316
-0.711728
0.920044
0.055752
-0.0703708
-0.278249
0.34862
-0.765232
0.0870227
0.678209
0.900659
-0.213959
-0.6867
0.831397
-0.99397
0.162573
-0.356566
-0.0430765
0.399643
-0.0120054
0.609687
-0.597682
-0.497451
0.877407
-0.379955
-0.426937
0.989054
-0.157657
0.248704
0.0944863
-0.343191
0.997931
-0.00887703
0.29383
-0.0451258
1.00905
-0.0111157
0.618906
-0.827222
-0.780037
0.59644
0.183597
0.262186
-0.759637
0.556591
-0.913777
0.357186
-1.07176
0.661606
0.410153
-0.647212
0.635207
0.0294749
-0.249155
0.21968
0.0253727
-0.64261
0.617237
0.465429
-0.508506
-0.870918
0.895324
-0.024406
1.01889
-0.00984679
0.901354
-1.07667
0.17532
1.02253
-0.00364172
-0.69916
-0.0808767
1.24118
-0.824206
-0.416971
0.151617
-0.0890519
-0.406572
0.495624
-0.272929
0.186183
0.0867457
-0.587916
-0.472723
0.984488
-0.0831342
0.0161848
0.822168
-0.838353
0.542032
0.699145
0.520635
0.0140305
0.451399
-0.786848
-0.113366
0.900214
0.541829
0.255399
-0.797229
0.0251748
0.624899
-0.650074
-0.504373
-0.567386
-0.386709
-0.689965
0.0231286
0.250347
-0.273475
-0.930673
-0.0484937
0.979167
0.374895
0.0247477
0.801849
0.09881
-0.599378
-0.0478346
0.0314317
-0.81828
0.0932347
0.881502
-0.974737
-0.402126
0.0244437
0.377682
-0.718214
-0.212459
-0.648336
0.74157
0.620256
0.257151
-0.583651
0.984448
-0.813633
-0.170815
-0.183254
0.038899
0.144355
-0.459117
-0.0493887
-0.272994
0.89325
0.0046145
0.427742
-0.432357
-0.485902
1.02773
0.707366
-0.820732
0.399601
-0.0698711
-0.32973
0.884242
-0.884242
-0.865858
0.0430868
-0.321336
-0.655579
0.671764
-0.0372701
-0.147846
0.185117
0.867197
-0.0450285
1.01061
-0.755207
0.224367
-0.322495
0.0981285
0.93172
-0.129871
-0.667723
-0.0402418
0.707964
0.147751
-0.230402
0.0826517
0.775401
-0.98936
-0.438607
0.309903
0.128704
0.666065
-0.640693
0.935349
-0.421595
-0.513754
0.54864
-0.69613
0.0350729
0.661057
0.134491
0.650536
0.0589061
-0.709442
0.140067
-0.0969797
-0.509384
0.107258
0.0278535
-0.894358
0.866504
-0.548123
-0.746273
0.047113
0.501737
-0.0503379
0.27707
-0.83745
0.56038
0.421918
0.578082
0.593971
-0.562539
-0.404216
-0.00283854
0.407054
0.667661
0.216581
-0.679062
0.704237
0.0951645
0.862424
0.00477292
-0.672495
-0.759663
0.787517
0.610294
0.0873415
0.362832
-0.450173
-0.156673
0.554021
0.0708775
0.942887
-0.866445
-0.0764417
0.653182
0.331265
-0.435989
0.678971
-0.59163
0.409132
0.14746
-0.0650323
-0.656305
-0.192496
0.848801
-0.160282
-0.723961
-0.611478
0.360429
0.25105
0.656877
-0.652105
0.31135
0.961249
0.0493579
-0.759663
-0.172036
-0.0112176
0.707366
0.769105
-0.769105
0.847245
-0.83298
-0.0142648
-0.455208
0.877126
-0.191074
-0.31831
0.759454
-0.668085
-0.0913696
-0.86053
0.204225
0.115102
-0.71448
0.820732
-0.977406
-0.2163
0.207906
0.0083937
0.147633
-0.958939
0.811306
0.54912
-0.0284848
-0.28849
0.59728
-0.30879
-0.704913
0.852546
-0.156755
0.662397
-0.827878
0.165481
0.986843
-0.57337
-0.413473
0.704073
-0.0760556
-0.00865493
0.00962872
-0.000973793
-0.794107
-0.813621
0.101894
-0.655579
0.571269
-0.546825
0.165776
0.646308
-0.812083
0.773928
0.17032
0.495635
0.504365
-0.114539
-0.67866
0.793199
0.950916
-0.00802943
-0.704073
0.787517
0.181161
-0.430316
-0.0383236
0.0163405
0.0219831
0.671496
-0.434601
-0.236896
0.678209
-0.0328366
-0.151224
0.554572
0.116924
-0.0211479
0.000547671
0.0206002
0.00478654
-0.0134415
0.152651
-0.222522
-0.92586
0.00230936
-0.138344
-0.0636489
0.140814
0.754738
0.740632
-0.16255
0.680428
-0.514652
-0.165983
0.390349
0.655555
0.0226545
0.229373
-1.06235
-0.977406
0.324557
0.671764
-0.166464
0.0186179
-0.757047
0.952081
-0.195034
0.480859
-0.103176
0.790448
0.30387
0.293756
7.39213e-05
-0.682236
0.682236
0.242069
0.658145
-0.0326104
0.460353
0.463014
0.0138514
-0.052175
0.532724
0.0163964
-0.704913
0.564734
0.19472
0.00217122
0.0074575
-0.655555
0.182665
0.769417
-0.00106938
-0.764914
0.765984
0.762478
-0.824895
0.062417
-0.773928
-0.037394
0.0521964
-0.0148024
0.0862228
-0.122818
-0.105153
0.227971
-0.00813967
-0.0130082
0.721752
-0.722821
0.840394
0.0796498
-0.331587
-0.49911
0.830696
-0.00117836
0.00117836
0.205067
0.469296
0.628796
-1.09809
-0.15801
-0.579216
0.737226
-0.0193154
0.204432
0.380788
-0.233037
1.00888
-0.539587
0.698216
1.04918
-0.420382
0.189714
0.852546
0.694889
0.216441
0.678883
-0.723961
0.317764
-0.0503661
0.0261509
0.0242152
0.851877
0.00607883
-0.857955
-0.683774
0.680132
0.544792
-0.683774
-0.694889
0.680132
-0.012997
0.853781
-0.0133873
-0.667661
0.593598
0.0740631
0.523289
0.574654
-1.09794
0.481244
0.527639
0.556708
0.475971
-1.03268
0.523129
0.526049
0.593598
-0.528106
-0.461441
-0.583893
-0.526708
-0.18157
-0.0078371
0.0078371
0.525402
0.516971
-1.04368
0.700824
-0.337992
-0.938224
0.364854
-0.670676
0.458217
0.00944661
-0.864927
0.85548
0.452142
-0.0165796
0.868456
-0.979922
-0.891577
0.060461
0.831116
0.430299
-0.290009
-0.14029
0.681822
-0.764956
0.914441
-0.858506
-0.0559348
-0.015187
-0.851258
-0.137754
0.803462
-0.665708
-0.889372
0.874185
-0.773886
0.720191
0.0536944
-0.863631
0.0316645
0.831966
0.00396631
-0.00514467
0.424529
0.0654817
-0.888601
0.82312
-0.804619
0.690081
0.954599
0.0757373
-1.03034
0.0630216
-0.0262476
0.433302
-0.362672
0.040177
0.881883
-0.872436
-0.783981
-0.872112
0.0208545
-0.124639
-0.883949
0.0254426
0.608405
0.0720227
-0.00908085
0.43938
-0.821704
0.853369
0.513754
-0.881507
-0.813635
0.040146
-0.0381038
0.837071
-0.798967
-0.0284682
-0.822085
0.582106
0.180372
-0.0153661
0.883822
0.934646
0.898448
-0.873006
0.0476807
-0.0476807
-0.0861208
-0.239913
-0.0500968
0.337192
-0.0126353
0.26092
0.855354
0.0132356
-0.0213753
0.658457
0.341543
0.799504
-0.587916
-0.732553
-0.792888
-0.655726
0.655726
-0.20919
-0.112146
0.628711
-0.872563
0.243852
-0.502713
-0.558121
0.296211
-0.986176
-0.879093
0.823158
-0.82963
0.850485
0.670545
0.157685
-0.828231
-0.739194
-0.18337
0.836523
-0.653153
0.0237389
0.00875651
0.00318901
-0.0119455
-0.13182
-0.108092
0.924922
0.685831
-0.315165
-0.370666
0.545541
0.747704
-0.505634
0.0143692
-0.287298
0.054062
0.746613
-0.800675
-0.315631
-0.100382
0.136668
-0.981692
0.123737
-0.714878
0.131351
0.684856
-0.816207
-0.82758
0.112702
0.684537
-0.784919
0.234363
-0.357181
-0.717122
-0.0220713
0.372753
0.720521
-0.04155
-0.00255952
0.00255952
-0.00728943
-0.00255865
-0.0478075
-0.018161
0.0313966
-0.6451
0.287981
0.731367
-0.783666
0.0522999
-0.64597
0.77732
0.774619
-0.0900827
-0.69098
-0.1366
-1.08661
0.0210746
0.026606
-0.591038
-0.828734
-0.809147
0.392176
-0.209262
0.281534
-0.0722726
-0.545533
-0.0455042
0.530534
0.714209
-0.0526276
-0.0110213
1.00376
0.498581
0.182944
-0.681525
-0.489857
-0.0556768
-0.00579256
0.0145491
0.705679
-0.898175
0.00539789
-0.00539789
-0.702296
0.707073
-0.00477697
-0.498938
-0.127324
-0.693952
0.170174
0.623025
-0.0567094
-0.877322
-0.383231
0.297846
0.0853853
0.71232
-0.66002
0.339411
0.250245
-0.589656
-0.123055
-0.666384
-0.149823
-0.203715
-0.213057
0.468549
-0.517938
0.191102
0.704119
-0.895222
0.54864
-0.239003
0.0297417
0.0709817
-0.284039
0.591509
-0.0914428
-0.500066
-0.288191
0.308428
-0.0202364
0.538259
0.162565
0.108235
-0.313034
0.170947
0.142087
-0.117776
-0.0542606
-0.291109
0.046794
0.0464351
-0.0932291
0.821952
-0.387051
-0.111886
0.55433
0.293953
-0.609118
0.544368
-0.544368
-0.257093
-0.556691
-0.249812
-0.556691
-0.63816
-0.845909
0.177824
-0.437148
0.758613
0.0446836
0.16476
0.555762
0.11945
0.121594
0.00893809
-0.130532
-0.139302
0.621892
-0.919883
0.420773
-0.044675
0.0796578
-0.0349828
-0.743236
-0.176591
-0.541915
0.724859
-0.54025
-0.0657184
-0.218321
-0.342365
-0.079747
0.079747
0.0519175
0.000278845
0.142668
0.227274
-0.703019
0.161104
-0.0185241
0.474744
0.525256
0.798316
0.0267371
0.0254869
-0.052224
-0.304871
-0.572451
-0.538489
0.11586
-0.120364
0.00450371
-0.107108
-0.409753
-0.152346
0.775371
-0.567983
-0.175253
-0.0268194
0.0160226
0.183093
-0.560156
-0.200252
-0.198164
-0.0243575
-0.478325
0.431199
0.0471266
-0.0473167
0.29517
-0.862556
-0.525845
0.636069
-0.844933
0.721879
0.434105
-0.0320256
0.0569981
-0.0249725
0.1173
-0.635894
0.000113269
0.63578
-0.892033
0.641782
-0.727902
-0.0967245
0.00771972
-0.00771972
-0.298665
0.423581
0.00972085
-0.000430726
0.0271678
0.568744
0.677318
-0.75376
0.0159098
0.00203474
-0.00459426
0.00531129
-0.00531129
-0.476658
0.639223
0.0160142
-0.0160142
-0.777595
-0.00898346
0.0129498
-0.490838
0.651942
0.566577
-0.571354
0.0707886
-0.0707886
0.00261062
-0.0547856
0.0062677
-0.926617
0.513144
-0.548931
-0.00514467
0.589623
0.0225406
-0.612164
-0.701576
0.133594
-0.314915
-0.0121997
0.327115
-0.02756
-0.0250676
-0.607907
-0.0279862
0.026606
0.0054514
-5.3514e-05
-0.00291853
0.00291853
-0.375659
0.28243
-0.437004
0.135599
0.663905
-0.125763
0.00574854
-0.00574854
0.509817
-0.120776
0.00889808
0.0188863
0.000166621
0.628991
-0.749767
-0.753369
0.641483
-0.12535
0.336098
0.762167
-0.00728943
-0.0906803
0.0981378
-0.690851
0.537149
-0.342959
-0.111953
-0.0258013
-0.0263979
0.00732587
0.47941
-0.087459
-0.412607
0.67685
0.00252581
0.00463306
-0.00463306
-0.229283
-0.148385
-0.572238
0.616922
-0.137179
0.509821
-0.159966
0.778872
0.734594
0.0054514
-0.651547
0.58337
0.0379816
-0.00916836
-0.0288133
0.594166
0.099035
-0.01214
0.0671896
-0.0550496
0.00922149
-0.00922149
-0.815214
0.023108
-0.0456884
0.0645747
-0.0858691
0.0858691
0.00203474
-0.00154089
0.709863
0.0595542
-0.315675
-0.0940778
-0.51976
0.0111623
-0.0669482
0.0669482
-0.0496134
0.0827018
-0.0827018
0.0269436
-0.0269436
-0.35828
-0.077709
0.238374
0.0715282
0.0492303
-0.777918
-0.0656929
0.159549
0.0216125
-0.243963
0.0823738
-0.0823738
-0.465162
-0.052776
0.228874
-0.00919343
0.00253287
-0.651325
0.664322
0.01762
-0.0672333
0.0381977
-0.0929832
-0.0119132
-0.159197
0.17111
-0.149931
-0.20725
-0.0812557
0.0812557
0.05378
-0.05378
-0.0272663
-0.0939169
0.121183
-0.0291032
-0.190063
-0.00396424
-0.00063002
-0.196328
0.478758
-0.025967
0.455613
0.00945111
0.0111491
-0.0513853
0.0513853
-0.727789
0.317065
-0.127351
-0.208063
-0.022339
-0.017769
0.0203019
0.197926
0.0300452
-0.00168597
0.00185259
0.0857558
0.0301043
0.0564386
0.10311
-0.0280478
0.0170265
-0.000764828
0.00334876
0.0047241
0.00461087
-0.00933496
-0.00259832
0.0119769
0.0269248
-0.0269248
0.0494206
-0.0438161
0.0438161
-0.191726
0.0144978
0.0236167
-0.0765409
0.0177221
0.0784241
-0.0784241
0.245053
-0.237689
0.087758
-0.0670713
-0.170618
-0.0144031
0.0144031
0.407272
0.253786
-0.524262
-0.0804295
-0.0399342
0.542871
0.00909444
-0.0606352
-0.463342
0.067762
-0.151448
0.169233
-0.0177852
-0.0483199
0.0483199
0.829929
-0.591121
-0.00791157
0.00531325
-0.00612212
-0.288737
-0.000328014
0.00461342
-0.047075
-0.617588
0.572536
-0.640719
0.0143075
0.153505
0.0155629
0.0244417
-0.15757
-0.33258
0.25604
-0.0541215
0.0268552
0.171862
0.136565
0.272082
0.264029
-0.248466
0.00467058
-0.116874
-0.220263
0.0666433
-0.0102047
0.16112
-0.136678
-0.0686887
0.154444
-0.390475
0.122121
-0.104399
0.0596351
-0.472242
0.173846
0.179152
-0.247841
0.0102909
-0.179761
0.179433
0.00394966
0.150495
-0.0278019
0.047615
0.462202
0.0125218
0.0150613
-0.00363707
0.0381769
-0.238048
-0.203876
0.590525
0.16652
0.0623535
0.0731306
-0.0636866
0.0805588
-0.109372
-0.0304173
0.165815
-0.151507
0.0223872
-0.00854159
-0.107424
-0.0292667
0.0394138
0.251589
-0.0292369
-0.0124244
-0.310426
-0.0105698
0.219329
0.140175
0.17689
0.056721
0.0952162
0.0525063
0.516238
-0.0100998
0.105754
0.040622
0.0677362
-0.108358
-0.270477
-0.196896
0.0262779
-0.220653
0.284148
)
;

boundaryField
{
    FrontBack
    {
        type            empty;
    }
    Top
    {
        type            calculated;
        value           uniform 0;
    }
    In
    {
        type            calculated;
        value           uniform -1;
    }
    Bottom
    {
        type            calculated;
        value           uniform 0;
    }
    Out
    {
        type            calculated;
        value           nonuniform List<scalar> 10(1.03795 1.0514 1.04533 1.05077 1.05063 1.05276 1.04237 1.06083 0.801461 0.806503);
    }
    circle
    {
        type            calculated;
        value           uniform 0;
    }
}


// ************************************************************************* //
