/*--------------------------------*- C++ -*----------------------------------*\
| =========                 |                                                 |
| \\      /  F ield         | OpenFOAM: The Open Source CFD Toolbox           |
|  \\    /   O peration     | Version:  2412                                  |
|   \\  /    A nd           | Website:  www.openfoam.com                      |
|    \\/     M anipulation  |                                                 |
\*---------------------------------------------------------------------------*/
FoamFile
{
    version     2.0;
    format      ascii;
    arch        "LSB;label=32;scalar=64";
    class       volVectorField;
    location    "8";
    object      U;
}
// * * * * * * * * * * * * * * * * * * * * * * * * * * * * * * * * * * * * * //

dimensions      [0 1 -1 0 0 0 0];

internalField   nonuniform List<vector> 
808
(
(0.887585 -0.0160777 0)
(1.0076 -0.0241786 0)
(1.06468 0.0154569 0)
(1.07179 0.0149267 -1.89238e-21)
(1.48249 -0.277067 0)
(0.950874 -0.0222972 0)
(1.0876 -0.0724916 2.31987e-22)
(1.03741 0.011246 0)
(1.36372 -0.21925 3.1253e-20)
(1.23131 -0.0784389 -1.60084e-20)
(1.08508 -0.0501461 7.84322e-21)
(1.39389 -0.245619 0)
(1.0028 -0.000649854 0)
(0.723633 -0.0270612 0)
(0.988566 0.0509811 2.05384e-20)
(1.04385 0.0104296 0)
(0.864365 0.0223673 -6.58745e-21)
(0.996086 0.00727217 -8.5611e-23)
(1.05581 0.0122276 0)
(1.11238 0.0206468 0)
(1.07591 -0.0555708 -1.09465e-20)
(0.928924 0.124043 1.0401e-19)
(1.06751 0.00559966 -9.86806e-21)
(1.17672 -0.0126097 0)
(0.95104 0.177235 0)
(1.35678 0.0332551 -3.36688e-20)
(1.28716 -0.162501 1.51338e-20)
(0.993969 -0.000552973 -4.1606e-21)
(1.07133 -0.00178868 0)
(1.05471 0.0210763 -8.78924e-23)
(0.997765 0.000703732 3.50448e-24)
(1.11289 0.00239042 0)
(1.02471 -0.000400656 0)
(1.07001 0.00521652 2.9664e-21)
(1.30882 -0.0463811 1.15376e-20)
(0.73968 -0.118228 1.05682e-19)
(0.851274 -0.0288126 6.80078e-22)
(1.01731 0.00934583 9.00887e-22)
(1.13542 0.00838415 2.24427e-22)
(1.07268 -0.00403239 0)
(1.26026 -0.045306 -2.25314e-20)
(1.28059 -0.116096 0)
(0.996943 -0.00726856 -4.6007e-21)
(1.07038 -0.0168724 5.5138e-21)
(1.27606 -0.0851306 0)
(1.00215 0.0106848 -1.58365e-20)
(1.00219 0.0126721 1.05138e-21)
(1.26098 -0.241466 1.98831e-20)
(1.13929 0.0836506 1.71719e-21)
(1.41881 -0.16097 -4.51509e-20)
(1.08631 -0.0728042 3.95575e-22)
(1.14709 -0.067327 0)
(1.11425 0.00955768 4.13837e-21)
(1.04977 0.00267208 0)
(1.31284 0.220388 5.84576e-21)
(1.08147 0.0899435 -1.26252e-22)
(1.0297 -0.0084587 0)
(1.05351 -0.0421632 3.97913e-21)
(1.23798 -0.0785522 1.7184e-20)
(1.11086 0.0447798 1.04475e-21)
(-0.384744 0.219878 0)
(1.22168 -0.209601 -1.24348e-20)
(1.05984 -0.0250784 0)
(1.43844 -0.0403776 -3.41968e-20)
(1.07012 -0.0224864 -6.69501e-21)
(1.04139 -0.0358405 -5.13924e-21)
(1.40808 -0.105118 3.60781e-20)
(0.717636 -0.00938232 0)
(1.0753 -0.0441909 0)
(1.46389 -0.350024 0)
(0.847516 -0.00919558 1.23185e-24)
(1.28314 -0.133687 -4.64936e-20)
(1.00094 0.00170332 0)
(1.02886 -0.00495856 -1.39266e-21)
(1.13248 -0.333911 -4.91015e-20)
(1.0681 -0.0615579 -5.56013e-21)
(1.12249 0.0317226 7.48429e-22)
(1.31876 0.48721 2.49731e-20)
(1.0883 -0.0454253 0)
(1.0111 0.274624 -1.71867e-19)
(1.34769 0.0182157 1.8914e-20)
(0.763981 -0.00222023 0)
(0.934404 0.0123127 -6.23535e-21)
(0.976617 -0.112691 3.71348e-21)
(1.07566 -0.0428189 4.63709e-21)
(1.17869 0.0314376 2.0119e-21)
(1.31167 -0.23343 0)
(1.34165 0.274959 0)
(1.09229 0.0150731 -2.43947e-21)
(1.40079 0.0755599 3.68589e-20)
(1.06971 -0.00664 5.28758e-21)
(1.32706 -0.103365 -1.78568e-21)
(0.976474 0.0285429 1.54192e-20)
(1.00783 -0.0271454 0)
(1.10844 0.0193658 8.79718e-22)
(1.39803 -0.00880905 -9.37201e-20)
(0.914077 0.00429916 -1.94975e-21)
(1.36469 -0.0529459 0)
(1.3323 -0.0648648 0)
(1.4384 -0.0737341 -5.54063e-20)
(1.06453 -0.0571817 -7.00578e-22)
(1.10743 0.0169901 1.36661e-22)
(0.938572 0.0308863 5.03041e-21)
(1.1619 0.0312561 -8.79916e-22)
(1.30368 0.0636203 -2.8877e-20)
(0.990659 -0.00437787 9.81053e-21)
(1.44928 -0.0876801 0)
(1.05092 0.00449566 0)
(1.09496 0.0249278 6.34521e-23)
(1.21147 -0.21278 -3.45005e-21)
(1.25117 0.0504521 1.40612e-20)
(1.04457 0.0430599 -1.14955e-19)
(1.12749 0.0493156 6.51197e-23)
(1.18848 0.065163 4.2018e-21)
(0.920263 -0.00225268 0)
(0.915575 -0.0529665 7.13108e-20)
(1.13032 0.0167165 2.05555e-21)
(1.46125 -0.258736 -2.15038e-20)
(1.03566 0.00160916 -3.30239e-21)
(0.917959 0.0133952 2.90777e-21)
(-0.458724 0.108758 0)
(0.849325 -0.0221456 2.67327e-21)
(0.786748 0.0478549 0)
(1.06945 -0.00382912 -5.93873e-23)
(1.01144 0.0254982 0)
(1.3048 0.311086 9.06136e-21)
(1.0317 -0.051768 -2.38498e-20)
(1.23347 0.111456 2.06962e-21)
(1.14926 -0.0516956 0)
(1.09084 -0.0160339 0)
(0.684494 -0.04082 0)
(1.02563 0.00443523 -1.98186e-21)
(1.24021 -0.0320631 1.30933e-20)
(1.06928 0.116987 -2.93358e-20)
(0.956431 0.00137135 0)
(1.10516 0.0211713 2.40422e-22)
(1.09809 0.082831 2.70416e-21)
(1.05652 0.000364676 -8.98028e-22)
(0.955538 0.0363042 1.89965e-21)
(1.11572 0.0216179 -1.14565e-22)
(0.00252492 0.0579589 0)
(1.08325 -0.000760483 -6.00161e-21)
(1.07131 0.0354085 1.9903e-21)
(0.685345 0.0244998 5.33827e-22)
(1.25281 0.160496 2.04021e-21)
(1.11779 0.114137 3.428e-21)
(1.04952 0.0257903 1.21256e-20)
(0.994301 0.0327802 0)
(1.14702 -0.202756 -1.31721e-20)
(1.05147 0.0112577 0)
(0.884193 0.0289566 -6.7071e-22)
(0.968215 0.276636 1.37549e-19)
(0.952308 0.0339138 0)
(0.816114 0.0952663 0)
(-0.163442 0.00844967 -7.49898e-20)
(1.32974 0.121482 -1.40399e-20)
(0.651595 -0.0120841 0)
(1.43836 0.0137918 0)
(1.0766 0.0530877 0)
(1.34775 0.0826233 1.56212e-20)
(-0.0459282 -0.154272 0)
(-0.0681837 0.0760285 3.54747e-20)
(1.06714 -0.0436954 9.92724e-20)
(0.981435 0.0340916 -2.82071e-22)
(0.862789 -0.00310697 0)
(1.02146 0.00270859 5.1759e-21)
(0.876251 0.0197053 0)
(0.829787 -0.0389553 -1.07256e-19)
(1.0227 0.0546311 -2.09602e-21)
(1.05579 -0.0300524 2.40422e-21)
(1.089 0.032017 1.75697e-21)
(1.00617 0.0610304 -1.02679e-20)
(0.914239 0.076268 -3.41243e-21)
(1.14537 -0.346306 2.66275e-22)
(0.927343 -0.00435646 0)
(1.06548 -0.000200485 -8.78912e-21)
(0.879341 -0.000897693 -8.16672e-21)
(1.3909 -0.156683 2.7111e-21)
(0.723979 0.0194431 0)
(1.07667 -0.141995 0)
(1.04382 -0.00543049 2.09871e-21)
(1.38573 0.205374 1.12344e-20)
(1.09564 0.029382 7.85115e-22)
(1.03222 0.0220589 1.66368e-20)
(0.749788 0.0608951 -7.96892e-20)
(0.815669 0.00522351 1.61495e-20)
(1.14275 -0.0440566 7.93517e-22)
(1.38233 -0.0341223 -6.30974e-21)
(1.05173 -0.0188965 -4.30653e-21)
(1.32325 -0.0114085 5.40707e-21)
(-0.177763 0.0414761 5.45994e-20)
(1.26647 0.0063494 0)
(0.651134 0.00822507 0)
(1.05649 -0.0234412 -3.65257e-21)
(1.10096 0.0274392 -1.86996e-21)
(0.0639468 0.0803433 0)
(0.935883 -0.00304318 1.98552e-22)
(1.04448 0.00366217 -2.50788e-21)
(1.05737 -3.67488e-05 1.6316e-21)
(1.07989 0.0369045 -5.64998e-21)
(1.00361 0.0265477 2.53452e-21)
(1.01316 -0.012037 2.21219e-21)
(1.06747 -0.00492044 0)
(0.362169 -0.0417195 0)
(1.04685 -0.0640373 0)
(1.15846 0.0996845 -3.05954e-20)
(-0.0442346 -0.166515 5.36348e-20)
(1.07384 0.00340864 -1.4473e-23)
(1.05854 0.0105798 0)
(0.730021 0.0373403 -1.72896e-21)
(1.05211 -0.00961751 1.55649e-21)
(-0.00544556 -0.0409989 -1.68339e-19)
(0.957646 0.0264062 -6.93681e-20)
(0.633134 0.00954397 0)
(1.04698 0.00327595 0)
(0.924593 -0.00263126 5.71662e-21)
(1.05047 -0.111341 6.59604e-21)
(1.27591 0.388749 2.70661e-21)
(1.05362 -0.00334614 -6.01213e-23)
(1.04557 -0.0125829 -4.08991e-21)
(1.05129 -0.00383394 0)
(1.35781 0.413238 -4.37541e-20)
(0.698501 -0.0134821 0)
(0.933017 -0.000426032 -3.27337e-21)
(1.06658 0.00771274 -7.76578e-22)
(0.650446 0.0122668 0)
(1.10195 -0.00818583 0)
(0.150205 0.0197482 -6.14321e-20)
(1.09277 -0.0222542 -7.39509e-21)
(0.895057 -0.00622638 1.93877e-21)
(0.994993 -0.00299859 0)
(0.676642 -0.00235527 0)
(0.906355 -0.00983208 -3.33555e-21)
(0.687499 -0.00889124 -2.88737e-22)
(1.3191 0.00363675 3.56876e-22)
(1.05125 -0.00991645 -3.15398e-21)
(0.8756 0.00316418 -1.78821e-21)
(1.04992 -0.000564948 4.49668e-22)
(1.05162 -0.00440755 5.66497e-23)
(0.681399 0.0085833 4.33147e-21)
(1.03536 0.0126311 3.82282e-22)
(1.04032 0.00569095 0)
(1.05077 -0.00271132 0)
(0.665135 0.0137137 0)
(1.05137 -0.00362995 0)
(1.04564 -0.005197 -6.51573e-22)
(1.04975 -0.000472533 0)
(1.04908 0.00427045 0)
(1.05205 0.0012187 0)
(1.08655 0.088536 0)
(-0.0258617 -0.061214 5.36413e-20)
(1.03767 0.0056487 4.12099e-22)
(1.05029 0.00542307 0)
(1.30245 0.0812215 1.70003e-20)
(1.04011 -0.00622582 7.74867e-22)
(1.08485 0.0614301 -5.40111e-22)
(1.05314 0.00801998 3.78622e-21)
(1.04206 0.00565429 0)
(0.665064 -0.00426032 6.73745e-21)
(1.05364 0.0422636 9.98656e-21)
(1.08706 -0.00220367 0)
(1.04396 -0.00978113 -1.75429e-21)
(1.03623 -0.00231387 2.3442e-21)
(0.689838 0.0214892 -1.2253e-20)
(1.06521 0.00422491 3.98538e-21)
(1.05119 0.00172677 -3.75183e-21)
(1.05069 0.000932556 0)
(1.14486 0.0491572 -1.42278e-20)
(1.04642 0.00575192 -2.71508e-21)
(0.996125 0.0371567 8.45045e-21)
(1.03951 0.006193 0)
(-0.0192688 -0.022828 0)
(0.97759 0.111181 -1.65473e-20)
(1.04662 0.000611251 0)
(1.30092 -0.0986468 2.8638e-20)
(1.05052 0.00089832 6.78153e-22)
(1.04922 0.00778591 3.60639e-21)
(1.06349 0.00591228 -2.07331e-21)
(1.38272 0.0103558 1.34003e-19)
(1.02505 -0.324879 4.95732e-20)
(1.04617 0.0102586 -6.93264e-23)
(1.0362 0.00679619 0)
(1.04546 -0.00640397 0)
(0.893871 0.0033956 -2.02923e-20)
(1.3227 -0.198241 -5.63965e-20)
(1.04609 0.00146085 0)
(0.917983 0.0644625 1.21929e-20)
(0.634761 -0.00521492 0)
(1.03168 -0.0133037 4.98817e-21)
(0.978373 0.0566355 -1.40454e-20)
(0.801513 -0.00471854 -3.36121e-21)
(1.0524 0.01258 0)
(1.04793 0.00482491 -7.91001e-22)
(1.05207 0.00506408 3.43229e-21)
(1.02405 -0.00860494 -6.64046e-21)
(1.05662 0.0145407 -3.46761e-21)
(1.02707 0.0160931 0)
(1.09635 0.0722512 0)
(1.07297 -0.00542689 5.08228e-21)
(1.03554 -0.0139617 -5.03885e-21)
(1.05449 0.00280394 3.89268e-21)
(1.04289 0.0110546 -3.50321e-21)
(1.04432 -0.00410151 4.38985e-22)
(1.04384 0.00372959 0)
(0.426083 -0.141203 1.50667e-20)
(1.318 0.067065 -2.41043e-20)
(1.02011 0.0255512 -9.88416e-21)
(0.355624 -0.058879 1.29569e-20)
(1.43741 -0.106818 3.07039e-20)
(0.914816 -0.0296996 7.41264e-20)
(1.06941 -0.00390254 -5.22414e-21)
(1.04537 0.00816215 -2.44752e-22)
(-0.0662845 -0.172859 -9.25052e-21)
(0.990738 -0.00754827 0)
(1.03446 -0.0853927 -1.44332e-20)
(0.824869 -0.0341709 -7.51577e-22)
(1.03646 -0.0166946 1.65421e-21)
(1.01623 -0.0129829 -1.09314e-21)
(0.699871 -0.0118498 1.43755e-21)
(1.42482 -0.379663 -1.58545e-20)
(1.04224 0.0317693 0)
(1.06079 -0.0140021 -1.44972e-22)
(1.08429 0.0072248 -1.69531e-21)
(1.06002 0.00117406 0)
(1.03866 0.00127352 -6.79915e-21)
(1.08736 0.0104982 2.12551e-21)
(0.993801 -0.0134366 1.73597e-20)
(1.12949 -0.0557472 8.58444e-21)
(1.04281 -0.00738387 3.61693e-21)
(-0.0527365 -0.0831307 0)
(0.444912 0.0521478 -1.48577e-20)
(1.06513 0.00196278 0)
(0.988724 0.0783033 -9.34222e-21)
(1.03271 0.107612 0)
(1.11121 -0.0234713 -1.3495e-21)
(1.01123 0.0241536 0)
(1.05126 -0.000231702 0)
(1.4025 -0.099504 2.56032e-20)
(0.79714 -0.0900947 0)
(1.12877 -0.0725167 1.89816e-20)
(1.04042 -0.000478146 2.08955e-22)
(1.03177 0.00597561 2.03738e-21)
(1.27978 -0.110713 -1.75768e-20)
(1.23615 0.110966 -8.30616e-21)
(1.1163 -0.0133738 1.33311e-20)
(1.06433 0.021131 0)
(1.11291 -0.102897 0)
(1.06426 0.0267948 1.66406e-21)
(1.21697 -0.0480863 0)
(1.41516 0.206804 -2.77572e-20)
(0.976144 -0.0153069 1.45852e-21)
(1.02185 0.0159195 1.72391e-20)
(1.2208 0.0707352 -3.39251e-22)
(-0.0147652 -0.0238283 0)
(-0.0362316 -0.106449 0)
(0.164518 0.0197135 -5.4578e-20)
(-0.0436052 -0.165001 0)
(0.925476 -0.00342435 -1.17506e-20)
(1.12547 -0.0239823 -1.89455e-21)
(1.08998 -0.0532147 -2.9073e-21)
(1.15971 -0.156502 -4.68452e-21)
(1.18619 -0.0653295 0)
(0.881255 0.00522861 -1.70115e-21)
(1.08377 0.0210868 0)
(1.0682 -0.00750742 3.30335e-22)
(0.517236 -0.111102 0)
(0.902507 -0.028478 -4.27774e-22)
(1.10514 0.00598605 0)
(1.06751 -0.00284447 0)
(0.76207 0.17667 5.45451e-20)
(0.817216 -0.023 -2.24528e-21)
(1.052 -0.00152029 9.68949e-22)
(1.02085 0.0168496 -6.76116e-21)
(0.218571 -0.108382 0)
(1.12109 -0.0451477 -2.19147e-20)
(1.17836 0.0658154 -3.69316e-21)
(1.10541 -0.0472809 8.9946e-22)
(0.824875 -0.0599429 1.11432e-20)
(-0.0732265 -0.123012 -1.10076e-19)
(1.12145 0.0500111 0)
(-0.0331146 0.0385803 0)
(1.13921 0.0879388 3.49776e-21)
(0.704628 -0.0744144 -1.19921e-20)
(1.05615 0.00128963 -8.51516e-21)
(1.08966 -0.0353845 0)
(1.09627 -0.0433246 2.14972e-21)
(1.2644 -0.253343 1.25801e-20)
(0.570371 -0.0482767 -1.09216e-20)
(1.13866 -0.0345902 1.75336e-21)
(1.0957 -0.0915827 -4.78747e-23)
(0.495248 -0.191094 9.02688e-21)
(1.11308 -0.0747691 -9.77207e-21)
(1.09313 0.0332739 0)
(1.12 0.0253034 0)
(1.1346 -0.109415 3.2032e-21)
(1.14706 0.0786312 3.33784e-21)
(0.679785 -0.17988 -2.56989e-20)
(1.19595 -0.110335 -3.60299e-21)
(1.09579 0.0849832 6.55846e-22)
(0.585078 0.0118049 7.7128e-21)
(0.584856 0.145017 -1.05216e-19)
(0.22113 -0.000266284 1.89713e-20)
(1.16734 0.179312 -6.622e-21)
(1.24535 -0.494714 8.01932e-21)
(1.34023 0.104993 -1.62211e-20)
(1.16361 -0.0884169 -3.79603e-21)
(0.938615 -0.236672 8.7888e-20)
(-0.165367 -0.0163418 0)
(1.04233 -0.000305105 -4.90792e-22)
(0.0523072 0.158116 5.94992e-23)
(1.13763 0.0904857 -3.02662e-21)
(1.05571 0.00136934 6.00325e-21)
(1.0748 -0.0124543 0)
(0.783992 -0.109889 0)
(1.16721 -0.0402581 0)
(1.25684 0.132214 2.40823e-21)
(1.23939 0.0168605 -2.93894e-20)
(1.12605 -0.0628443 -3.55114e-21)
(0.657773 0.0139267 0)
(0.806837 -0.00163074 0)
(0.8119 -0.00770671 6.98018e-23)
(0.679856 -0.010793 0)
(1.06159 -0.00125453 0)
(1.01451 -0.0128865 1.87124e-20)
(0.580797 -0.141947 0)
(0.962977 -0.00211088 0)
(1.04718 0.0019456 0)
(1.16802 0.174184 -4.26651e-22)
(1.22439 0.0743406 9.50625e-21)
(0.949071 -0.0384938 3.15486e-21)
(1.31459 -0.402753 -1.21596e-19)
(0.754328 -0.181888 -1.95277e-21)
(1.11001 0.0618246 4.84349e-21)
(1.05253 -0.0070131 0)
(-0.254826 -0.188998 0)
(-0.237272 0.0795172 0)
(1.15085 -0.0422033 -7.17318e-21)
(1.33437 -0.284097 -4.05913e-20)
(1.21666 0.0965709 0)
(1.06742 0.00603852 -5.39077e-21)
(0.604382 -0.12614 0)
(1.5194 -0.149188 8.85748e-20)
(0.410145 0.513966 1.09684e-19)
(0.303933 -0.0533773 0)
(1.12077 -0.278901 1.30539e-19)
(0.443892 0.242344 0)
(0.0863532 -0.0977536 1.00778e-20)
(1.28157 0.119187 0)
(-0.0759448 0.105768 4.78183e-21)
(0.982638 -0.0492823 0)
(1.22997 -0.131476 -1.19444e-20)
(-0.19515 -0.0790622 -9.3756e-21)
(1.12397 -0.0378011 -1.10882e-21)
(1.11716 -0.0667762 -8.2447e-21)
(0.576706 -0.525646 -8.66176e-20)
(1.05184 -0.00853098 -1.29699e-21)
(1.19863 -0.119097 -1.05544e-21)
(1.17403 0.238986 -1.4932e-20)
(1.17396 -0.222168 -3.64985e-21)
(1.14265 -0.0285254 -1.48373e-21)
(-0.146709 0.0567806 -6.67689e-20)
(0.0402958 0.083373 -8.0718e-21)
(1.17548 0.061623 2.39163e-21)
(1.04699 -0.0454477 0)
(0.789911 0.0505413 -6.06941e-21)
(1.42123 -0.441547 9.65542e-20)
(0.979901 -0.0795111 -7.03912e-20)
(1.43216 0.143576 8.2602e-20)
(1.05419 -0.047335 7.34343e-22)
(1.11447 -0.0563242 9.24851e-21)
(1.06354 -0.000572627 0)
(1.16874 0.00281768 0)
(1.23869 -0.144557 3.29122e-21)
(1.09039 -0.0236072 -4.75738e-21)
(1.23052 -0.221812 4.12022e-21)
(1.08245 0.0128136 -2.64448e-21)
(1.43196 0.0315705 -5.6184e-20)
(0.447538 0.0271062 0)
(1.16065 -0.120947 3.99626e-21)
(1.23812 0.119604 0)
(1.08694 0.0648723 -7.03071e-22)
(1.14056 0.014785 0)
(1.05092 -0.0110907 8.51384e-21)
(1.22698 0.026542 1.93126e-20)
(1.04904 -0.000899609 0)
(0.0576391 -0.0296359 1.75041e-19)
(0.883633 -0.217487 -6.89341e-20)
(1.37974 0.0932189 -3.7112e-20)
(-0.152827 -0.0827699 4.6254e-20)
(1.16839 0.0495038 3.76499e-22)
(1.04148 -0.00171394 -2.07948e-21)
(-0.136384 -0.0446065 -4.82114e-20)
(-0.0283755 -0.00703938 -2.91087e-20)
(1.01693 -0.0238043 0)
(-0.030407 -0.0412422 0)
(1.21339 0.135212 0)
(0.112227 -0.113827 0)
(1.10981 -0.0380475 0)
(0.144761 0.0300291 0)
(1.08508 0.0461101 0)
(1.14297 0.152877 0)
(1.20339 0.102035 -2.64723e-21)
(0.586895 -0.290318 -2.40889e-20)
(-0.247785 0.0503577 0)
(1.18599 -0.0840926 7.32721e-20)
(1.04163 -0.00517414 1.11925e-21)
(1.35913 0.140806 0)
(-0.0388987 -0.0436304 0)
(1.15659 -0.0173901 5.7742e-21)
(1.14664 -0.0232491 -2.6671e-21)
(1.16579 0.382129 0)
(0.293416 -0.09277 7.06413e-20)
(1.12496 0.0610209 6.59056e-22)
(0.243939 -0.0525642 -5.89051e-20)
(-0.059 0.043345 -3.37497e-20)
(-0.0328039 0.0488155 8.65864e-20)
(0.537807 0.111422 -1.39375e-21)
(1.04712 -0.000409977 1.9569e-21)
(1.0926 0.0913738 1.61337e-21)
(1.01531 -0.00542128 0)
(1.07613 -0.0656795 -1.64251e-20)
(1.18566 0.0727114 -1.02172e-20)
(-0.014434 -0.0497599 1.11415e-19)
(0.986654 -0.0742482 -5.40334e-20)
(0.817175 0.0438776 1.13349e-20)
(1.04629 -0.00825084 -2.0522e-21)
(0.0781247 -0.0324941 3.84951e-20)
(0.255222 -0.0385165 -5.37139e-20)
(0.438118 -0.0648873 -6.40695e-20)
(1.19989 0.10957 4.53112e-21)
(-0.0570321 -0.0395986 0)
(1.11019 0.100187 5.20543e-21)
(1.17629 -0.158033 1.51659e-20)
(1.14737 -0.162959 -1.46231e-20)
(1.28286 0.120789 0)
(1.52071 -0.211429 8.64669e-20)
(1.07613 -0.00946196 -2.4628e-21)
(-0.0192766 -0.0616739 -3.85656e-20)
(0.29665 0.0867076 0)
(0.971407 0.00977651 -2.34439e-21)
(1.09931 0.0213587 -1.52182e-21)
(0.925391 -0.171385 2.05481e-20)
(1.151 -0.00966145 -2.12134e-21)
(1.12126 0.0473937 0)
(1.17187 -0.168262 -1.67501e-20)
(-0.0827272 -0.139748 -8.2779e-20)
(1.31193 0.0096641 2.87036e-20)
(1.09872 0.167387 -8.74883e-21)
(1.08284 -0.000406156 3.02438e-21)
(-0.0427355 -0.0737538 1.80002e-20)
(-0.023927 0.0325064 -6.72677e-20)
(0.883434 0.101098 0)
(0.859306 0.213544 0)
(1.1513 0.0964515 -1.12464e-20)
(1.05702 0.0632074 9.59017e-21)
(1.06327 0.00474854 0)
(0.670627 0.0159741 6.68468e-20)
(0.738078 0.0857539 -1.19341e-20)
(1.10177 0.108684 0)
(1.08281 -0.00576915 0)
(1.34329 0.171175 0)
(1.04535 0.00083596 0)
(1.09186 0.0456984 2.73467e-21)
(-0.0414324 0.0439042 3.6861e-20)
(1.0446 -0.00255109 4.7771e-21)
(1.44559 -0.182354 -9.94601e-20)
(1.06633 0.033408 -4.29541e-21)
(-0.0813889 0.0923358 0)
(1.14087 -0.113565 0)
(0.830303 -0.00769838 -1.66847e-21)
(0.545812 0.00801446 -6.15576e-20)
(0.0757261 0.0354509 4.9818e-20)
(1.05505 -0.00769245 4.53051e-22)
(0.757692 -0.275936 0)
(0.696554 -0.0926185 0)
(1.05505 0.0215743 0)
(0.539543 0.511233 2.37945e-20)
(-0.017546 0.0111171 -3.19953e-20)
(1.03998 -0.00340962 -1.11658e-21)
(-0.0292131 -0.102083 7.38981e-20)
(1.04765 -0.000586093 2.18122e-21)
(1.1686 0.307126 2.84803e-20)
(1.11828 -0.0861179 4.70605e-21)
(0.306104 0.0339504 8.72047e-20)
(1.09325 0.0787921 2.68616e-21)
(1.14919 -0.106514 0)
(0.563232 0.272372 0)
(1.03208 -0.00374913 4.11214e-21)
(-0.249958 -0.0175893 0)
(0.720667 0.0155137 1.6325e-21)
(0.611634 -0.42285 -3.72708e-21)
(0.244727 0.0494265 -1.15643e-19)
(1.13189 -0.22562 2.19854e-20)
(1.03791 0.358051 9.42003e-21)
(0.974857 0.0167442 0)
(1.06065 0.000654987 2.49404e-22)
(0.82092 0.0128399 0)
(1.04585 -0.00452972 -8.64155e-23)
(0.45825 -0.0198524 0)
(0.710413 0.125686 0)
(0.990829 -0.0452814 -6.37125e-22)
(1.4413 0.165573 -1.57123e-20)
(1.04741 0.00684967 2.5212e-21)
(0.527573 -0.497819 0)
(1.13491 -0.152353 -1.07468e-22)
(0.803753 0.370507 6.73426e-20)
(-0.0365954 0.0189482 1.22176e-21)
(1.22449 -0.0311711 1.35082e-20)
(1.2216 0.0141124 -1.53467e-20)
(1.05765 0.00487358 7.05239e-22)
(0.886624 0.00414647 -2.46598e-21)
(0.0662561 0.01796 3.90715e-20)
(-0.0248351 -0.063174 -6.21093e-20)
(-0.263713 0.00516735 0)
(-0.324077 0.152084 0)
(1.19822 -0.618946 3.57389e-20)
(1.14967 -0.0484524 1.4478e-21)
(0.901333 -0.46969 -4.99384e-20)
(1.07022 0.0781804 -1.1711e-20)
(1.37192 0.193163 3.63635e-20)
(0.605309 0.420388 0)
(0.244397 0.408583 -1.11734e-19)
(0.593908 0.471047 0)
(0.0200016 0.0683976 0)
(1.13136 -0.478918 0)
(-0.0593388 -0.00760525 -2.44574e-22)
(1.18891 0.0101861 0)
(0.861011 0.126208 1.14965e-22)
(0.592343 0.684658 2.0111e-20)
(1.27106 0.153716 -7.38006e-22)
(-0.027062 -0.144611 -1.27099e-19)
(0.77538 0.0807788 1.67862e-20)
(0.457921 0.145678 -1.38895e-20)
(1.20071 0.0793367 0)
(1.36144 0.350356 3.92275e-20)
(1.22165 0.559265 1.03471e-20)
(0.166304 -0.0191354 -2.33944e-20)
(1.012 0.129753 3.3868e-20)
(0.983974 -0.00230696 1.70836e-21)
(0.972659 0.0101291 -3.87746e-22)
(-0.00755537 -0.0393489 0)
(0.65038 -0.660632 -2.76639e-20)
(0.611926 0.195001 0)
(0.135112 -0.144062 0)
(-0.0470081 0.0562341 0)
(0.0263596 -0.161343 -4.87869e-20)
(1.24423 -0.0258169 -1.54835e-20)
(-0.0233008 0.0546905 0)
(-0.0360004 0.039811 0)
(1.45994 0.108076 -7.96618e-20)
(-0.0357232 -0.104414 5.7249e-20)
(0.113658 0.227473 -9.85413e-20)
(0.39629 0.0142594 0)
(0.170518 -0.285621 7.77131e-20)
(1.11137 -0.241298 0)
(1.00175 -0.28453 0)
(0.0302043 -0.132825 1.20892e-19)
(1.14703 0.0224513 2.85899e-23)
(1.12179 0.335501 2.51795e-20)
(0.268693 0.0275422 4.79154e-20)
(0.406562 -0.523478 -3.12618e-20)
(1.30685 0.0707297 0)
(1.22748 0.193347 2.30848e-20)
(1.22581 0.207822 -2.83546e-20)
(0.101641 0.0800346 -2.27776e-20)
(-0.0855268 -0.0449076 0)
(1.07295 -0.0503625 -1.87285e-20)
(1.10984 -0.222605 -1.08885e-20)
(0.584206 -0.410955 0)
(1.10072 -0.152855 -2.22239e-20)
(-0.145273 0.118458 0)
(0.603982 0.0406267 0)
(1.41471 0.08416 4.26363e-20)
(1.03386 -0.0104598 3.73533e-22)
(1.07561 0.736217 -1.39652e-20)
(0.226949 -0.384698 1.22756e-19)
(1.0685 -0.0140557 -2.37976e-22)
(1.20216 0.0698089 1.99744e-21)
(-0.0566821 0.05234 3.2122e-20)
(0.78653 0.728745 2.60029e-20)
(1.36231 -0.366017 -1.3666e-20)
(0.0936724 0.143205 9.25995e-20)
(1.04256 0.0075075 0)
(0.185548 0.00804422 -8.4119e-21)
(0.908816 -0.641018 3.3617e-21)
(0.902122 0.64039 -2.15997e-20)
(0.57013 -0.0344111 -7.13143e-20)
(1.11992 -0.0117666 2.15311e-21)
(1.0774 -0.0809041 4.71299e-21)
(1.1085 0.0562983 -1.12705e-21)
(1.1093 0.120985 2.26557e-21)
(1.13223 -0.123177 0)
(0.917475 0.106897 1.50863e-20)
(0.891817 0.459609 0)
(1.22112 0.0972378 -5.38851e-22)
(1.16648 0.105791 -2.46425e-21)
(0.759003 0.265482 0)
(0.52792 0.110817 1.10303e-19)
(0.892095 0.705243 -1.06381e-21)
(1.07449 0.285053 -1.93375e-20)
(1.03638 -0.00528141 9.10699e-21)
(0.413322 0.480663 0)
(1.30802 -0.471755 0)
(0.765669 -0.0199901 5.90312e-21)
(1.2663 0.500578 0)
(-0.0194069 0.0487426 -4.47126e-20)
(1.29386 -0.412395 -2.08843e-20)
(1.16425 0.502345 0)
(0.451686 0.208159 1.64449e-19)
(1.12912 0.31556 -1.23695e-19)
(0.818971 -0.645282 -2.2676e-20)
(1.11623 0.0586725 -2.85989e-21)
(0.924234 0.15161 8.40366e-20)
(1.08442 0.166304 4.49329e-20)
(1.07091 0.698789 -4.25844e-22)
(0.906067 -0.440182 5.91708e-20)
(1.42432 0.17396 4.33406e-20)
(1.11934 0.00494189 4.75035e-23)
(0.00533695 -0.0716723 1.05736e-19)
(1.09126 -0.706456 3.64719e-20)
(0.876769 -0.725223 4.46586e-20)
(0.252816 -0.344917 0)
(0.975015 -0.150153 6.62798e-20)
(0.360201 0.296748 -4.27113e-19)
(-0.095872 -0.0185677 3.2835e-20)
(0.245231 0.0374824 2.34543e-20)
(0.697688 -0.0591804 -8.34597e-20)
(1.07868 0.522352 0)
(0.989251 0.216713 7.43098e-20)
(1.08335 0.0271746 2.3899e-21)
(0.910056 0.435473 -8.68245e-20)
(0.789017 -0.731237 -6.72067e-21)
(0.925058 0.0164512 -4.65919e-20)
(0.977671 0.482556 0)
(1.15136 0.110343 -9.37621e-22)
(1.39202 -0.513532 1.57051e-20)
(1.23694 -0.338835 1.03915e-20)
(-0.384569 0.15645 3.86269e-20)
(0.194119 -0.00959441 -1.76181e-20)
(0.97348 -0.121105 -5.5128e-20)
(0.349823 0.515171 0)
(0.916515 0.0115239 3.71236e-20)
(1.15853 0.633211 8.30587e-20)
(-0.0385653 -0.110103 1.77503e-19)
(-0.0859361 0.0258945 -2.6657e-20)
(-0.116809 -0.132543 4.67287e-20)
(1.10111 0.0225442 -3.04296e-21)
(1.14594 -0.464692 0)
(1.07433 -0.738732 -3.21729e-20)
(0.696701 0.343058 0)
(0.0841674 -0.119505 -1.30065e-19)
(1.05983 -0.00562172 3.31658e-21)
(-0.0481285 -0.136421 -3.39489e-20)
(1.04753 0.0617638 -1.17355e-20)
(0.10923 0.0259624 5.79916e-20)
(0.855942 0.126687 0)
(1.35955 0.0369648 5.49215e-20)
(0.0558323 0.0423728 -2.6629e-20)
(-0.362007 0.0627879 -4.58581e-20)
(-0.28565 0.0877899 0)
(0.0847403 -0.0195528 0)
(1.31951 0.0291262 -1.76767e-20)
(0.393936 -0.0110921 1.72882e-19)
(1.27814 -0.730131 -3.39236e-20)
(0.959468 -0.0444528 4.2324e-20)
(1.06753 0.244953 -2.65076e-20)
(0.370549 -0.56744 1.32584e-19)
(1.54686 0.275191 -3.62951e-20)
(0.0886647 -0.0974122 4.12171e-20)
(0.206692 0.292618 1.90753e-19)
(0.109851 -0.0582198 -1.53783e-19)
(0.946437 -0.494881 -4.04795e-20)
(1.45383 0.38365 3.71666e-20)
(0.571488 -0.683601 4.48313e-20)
(1.11341 -0.070774 -5.02884e-21)
(0.297909 -0.0249205 7.09175e-20)
(1.18911 0.290565 -4.96505e-20)
(0.659776 0.631091 -3.93486e-20)
(1.35224 -0.62646 0)
(1.42158 0.517124 3.47972e-20)
(1.05888 -0.529776 -1.28269e-20)
(1.38966 0.602459 -1.05269e-19)
(1.13784 0.0409714 0)
(-0.0509262 0.0713555 0)
(1.25041 0.723597 0)
(1.0463 -0.00473001 -5.41653e-21)
(0.741304 -0.305582 -1.97005e-19)
(0.475106 -0.0891752 0)
(-0.0569051 0.0747948 -2.7224e-20)
(1.02761 -0.245852 8.70885e-20)
(-0.408446 0.141607 0)
(0.320444 0.0155918 1.19022e-20)
(1.11709 0.0377627 0)
(1.41762 0.272275 0)
(1.14044 0.0500992 3.06225e-21)
(0.362035 -0.301591 0)
(1.01302 0.14861 3.4018e-20)
(1.31124 0.28295 0)
(-0.119676 0.0443404 -3.15947e-22)
(0.813178 -0.400248 0)
(1.51319 0.332869 -5.52301e-20)
(1.2357 0.361202 -2.36229e-21)
(0.838824 0.636583 -9.44544e-21)
(1.0104 0.154893 -8.19748e-20)
(0.975569 -0.205912 -4.30768e-20)
(1.45165 0.289328 3.24553e-20)
(1.01209 0.0984039 0)
(0.562544 -0.0759154 0)
)
;

boundaryField
{
    FrontBack
    {
        type            empty;
    }
    Top
    {
        type            noSlip;
    }
    In
    {
        type            fixedValue;
        value           uniform (1 0 0);
    }
    Bottom
    {
        type            noSlip;
    }
    Out
    {
        type            zeroGradient;
    }
    circle
    {
        type            noSlip;
    }
}


// ************************************************************************* //
