/*--------------------------------*- C++ -*----------------------------------*\
| =========                 |                                                 |
| \\      /  F ield         | OpenFOAM: The Open Source CFD Toolbox           |
|  \\    /   O peration     | Version:  2412                                  |
|   \\  /    A nd           | Website:  www.openfoam.com                      |
|    \\/     M anipulation  |                                                 |
\*---------------------------------------------------------------------------*/
FoamFile
{
    version     2.0;
    format      ascii;
    arch        "LSB;label=32;scalar=64";
    class       surfaceScalarField;
    location    "604.5";
    object      phi;
}
// * * * * * * * * * * * * * * * * * * * * * * * * * * * * * * * * * * * * * //

dimensions      [0 3 -1 0 0 0 0];

oriented        oriented;

internalField   nonuniform List<scalar> 
1171
(
-0.9279229285832852
0.9279229285278826
0.7874454214560574
-1.099237794366642
0.3117923729895905
-0.1900445604387975
-0.7650717378457519
0.9551162983790221
0.07207706341903622
-0.1169783998573585
-0.2123674165072983
0.3293458161587871
-0.7874454226146208
0.0694730221028068
0.7179724005254668
0.8116628939214298
-0.1779712428129691
-0.6336916511092328
0.874220281173364
-1.044217044819643
0.1699967636893314
-0.2854716078701358
-0.09753969394930906
0.3830113021946454
-0.03626986619394462
0.5489838530544816
-0.512713986946257
-0.5043894223070421
0.8248872328541361
-0.3204978106736663
-0.4024500027185035
1.045960435895966
-0.171740156624131
0.3923896111832884
0.04907861802861087
-0.4414682298566182
1.045955260726752
5.174460260683666e-06
0.4433317052209652
-0.05094209449409314
1.056575115687397
-0.01061986220535741
0.5794857894540276
-0.7695303425671614
-0.7242411619591553
0.5566917496775314
0.167549412221773
0.2166429666133557
-0.7210323937724659
0.5503420549415512
-0.9227657775376364
0.3724237218489915
-1.094192483209383
0.6865373023805232
0.4076551809655684
-0.5955802320975331
0.5593103711539127
0.01770228413055833
-0.256384599088936
0.2386823137104772
-0.02298702722409084
-0.522094242624245
0.5450812704581371
0.4004470728021644
-0.4979867590850591
-0.9189365624902736
0.9415756041005942
-0.02263904162230346
1.067580188801156
-0.01100507667294844
0.9348566723134184
-1.116658048722925
0.1818013763631357
1.067033554866503
0.0005466265465738482
-0.6644560388928464
-0.0597851270270695
1.262327545402648
-0.8642477456879599
-0.3980797997029981
0.1480969849405404
-0.1096369581973132
-0.3261687818690431
0.4358057403597901
-0.2855815396694155
0.1915080131913046
0.09407352702080346
-0.5836697517688149
-0.5155680401848699
1.014031369496161
-0.07917469840345241
0.009907406181794989
0.8254807617447937
-0.8353881679150369
0.5718125960129455
0.6905149498384968
0.4393468988222104
-0.03052372902338188
0.4309708022833955
-0.8079661092666347
-0.1025063198081506
0.9104724290233357
0.5021023239692121
0.2538210456643504
-0.7559233696765409
0.00695226112937344
0.5275433970617376
-0.5344956583525002
-0.4899469457747114
-0.6042455434575073
-0.4227659326552839
-0.6938921165568654
-0.02706339022916675
0.2703463981883334
-0.2432830072358027
-0.9247018167948943
-0.005066040696668751
0.9297678575161655
0.3087456028663125
0.07426571058713181
0.7617902508731283
0.04987264421133226
-0.5330917311923731
-0.06248849719750493
0.04604637730867704
-0.8540124890388647
0.07514367079856175
0.8634756761431204
-0.9386193469530779
-0.3468664429998655
-0.0412958428334568
0.3881622857027611
-0.6820403880007921
-0.242661429134506
-0.6337932461340695
0.708936913564212
0.6135403645492302
0.2113468639697648
-0.5432377086896804
0.9456622849964206
-0.7790338325898991
-0.1666284524117964
0.01362857057713406
-0.01302406616008674
-0.0006045060059604549
-0.4033862985863641
-0.09460045945540298
-0.2408038874314083
0.8543442450587508
0.04733360167083776
0.3352023785406682
-0.3825359798452371
-0.4608557778346896
0.9629581024137467
0.6804025415427885
-0.7829088664066879
0.3204730411674186
-0.01712111194683032
-0.3033519303119505
0.9307357743681788
-0.9307357743572737
-0.7813535961938272
0.1106429087389261
-0.3230103200067061
-0.7499468276195363
0.7598542325022711
-0.09010867737410859
-0.1434305661327119
0.2335392438899533
0.8649590632870729
-0.03947830251399524
1.054281503411462
-0.8004604593973439
0.1864508491152918
-0.3159449567293967
0.1294941076114922
0.8588689425718576
-0.09707868978827047
-0.6115639367084068
-0.03898628988553919
0.65055022660142
0.1235473021396597
-0.2307635838632965
0.1072162806191365
0.8056476959050196
-0.9836189362350799
-0.4348771698840161
0.3294174813677609
0.1054596882597728
0.5323652946909768
-0.5553523265544368
1.021916707690089
-0.4561870526906828
-0.5657296550199451
0.5991507714474248
-0.7193749561194485
0.06675425821606867
0.6526206982991836
0.1029455744554166
0.5697461932094549
0.05538504684355983
-0.6251312401640181
0.1943028301688007
-0.08365991461180741
-0.4926228169173675
0.1457563716250403
0.05024168446384324
-0.8865393010090844
0.8362976165043225
-0.4730156234610952
-0.7133207013323363
0.04886466507475038
0.4372870889479877
-0.006316283338608734
0.2999037515070074
-0.8552460179326872
0.5553422661826865
0.4157415126503714
0.5842584873253756
0.5604640790429228
-0.5144177095627684
-0.3678066442771429
0.03751587526211178
0.3302907708612073
0.6813210371427159
0.2494147366250422
-0.5659845028493452
0.5729367662542862
0.1111183025014352
0.8751207200443579
0.01016116159430799
-0.6217251003623552
-0.7491361316465914
0.7993778137219311
0.530759901805553
0.06982803404102562
0.3020627582088975
-0.3718907923545985
-0.1674751943491692
0.4435165177446125
0.08402688137962459
0.8757582604057151
-0.8035174297916027
-0.07224083071279976
0.6352838725315517
0.3103784087376292
-0.430449691097946
0.5739369932778379
-0.5041089630812534
0.4171748907017235
0.1331671538096234
-0.04675652008485402
-0.5941231910137095
-0.1378183139333765
0.7319415049860962
-0.1497836252820677
-0.7809521472681366
-0.6109836318948233
0.3605147694883647
0.2504688633875155
0.6219795773775643
-0.6118184183508588
0.239237140821746
1.011292447025027
0.04298905819850153
-0.7491361326277791
0.2344512462764836
-0.2208226667330913
0.6804025425682516
0.8017693923971349
-0.8017693923699731
0.8376746431840617
-0.83316463611874
-0.004510007142291654
-0.4453703759579091
0.8611118877596197
-0.1473237820912955
-0.3452990324341235
0.7347222313214773
-0.6685040955461233
-0.06621813570283268
-0.7344362803779173
0.1403130900245649
0.1388844282477799
-0.6719761590440723
0.7829088816806998
-0.9503840759716317
-0.3685317987030051
0.2911201351749518
0.07741166360060003
0.1458651439971094
-1.009963302782065
0.8640981587583405
0.4812903179642946
-0.04194341907059718
-0.3081296264813719
0.5864015845481336
-0.27827195816162
-0.7385430407278817
0.8844081875943693
-0.1570542613921816
0.7314277240022202
-0.8435387123474629
0.1121109881670459
0.9760643987493099
-0.5398912284370604
-0.4361731702912238
0.7550128698323273
-0.06503334998269417
-0.03200872518180817
0.1852734111591723
-0.1532646852239617
-0.7758091999471437
-0.8422520028244497
0.07718027238774253
-0.7499468288081046
0.5136513105508427
-0.5549471517799738
0.09799317366504541
0.7188840255051814
-0.8168771992938989
0.7536461532710482
0.1742767605041576
0.5029154867743073
0.4970845132459779
-0.05061641137116057
-0.6120479765807249
0.6626643879006684
0.8841874174271085
-0.008429160101370134
-0.7550128698439923
0.7993778122428468
0.1913541549200881
-0.447738756827331
0.01627380800356362
0.003504227294643738
-0.01977803862379771
0.5885086741653204
-0.4377630118031796
-0.1507456626503972
0.7179724007305573
0.01058560614044777
-0.1108242775446889
0.4375283642358384
0.1509803055681334
-0.01637092252893813
-0.00595026267344197
0.02232118536415897
-0.03110028678646059
-0.0009084312426174766
0.2447398307553229
-0.2618609590251703
-0.9588236562628232
0.001329149939270597
-0.1594458440086297
-0.1237919734219347
0.09437968656090089
0.7221542115040173
0.7290124732668627
-0.1447539840909634
0.6727648919620883
-0.5747717153839211
-0.2117505055822939
0.3982013516478204
0.6955539758757386
0.02241842486622642
0.2417695732773494
-1.074934214328882
-0.9503840747710062
0.3024293107671641
0.7598542316660057
-0.2089941381537814
0.0655635676585607
-0.7234833610811985
0.9111137235359522
-0.18763036250746
0.4155638289787815
-0.02740153856816583
0.7712642638499475
0.2806250359550017
0.374461680507227
0.06887003594317387
-0.6586991142179706
0.6586991142395427
0.2146165061362925
0.6958559179319163
-0.05600692044629185
0.391209300810079
0.3797988155376932
-0.01568699040208594
0.03196080283132324
0.4487239127050623
0.03256640742252639
-0.7385430396632136
0.5340396323537279
0.2006825939722754
0.3025672739902494
-0.1172938751934016
-0.6955539780572356
0.1801188871203482
0.7309948381821794
-0.01014454096544853
-0.8136978639812368
0.8238424049724969
0.696350372767375
-0.7920478020592449
0.09569742927965896
-0.7536461459266365
-0.1497791215210598
0.2112421724898654
-0.06146305009283962
0.07723422075905489
-0.1793456314686264
-0.1118525324366372
0.2911981634629711
-0.009732984075723455
-0.006637933676746426
0.7062843159537114
-0.7164288502626655
0.8860596665516232
0.06905663867150133
-0.3097249703139656
-0.52292396110259
0.8326489316583924
0.1027186485658741
-0.1027186502578118
0.3286360017907539
0.4790702321020189
0.607867921897307
-1.086938154141078
-0.1941245705751678
-0.5855488966707078
0.7796734672378656
0.01219382988329268
0.2213454046338366
0.3767003857472221
-0.2531530963056161
1.014628746955435
-0.535558518326665
0.6667138849589114
0.9924475585733769
-0.3845796396261476
0.2293766088664922
0.8844081906945118
0.7126680308086195
0.2137919064730256
0.7277836925647675
-0.7809521475506616
0.3413008725241486
-0.2836457149814496
0.2569620006526975
0.02668371412098444
0.8520708716312302
-0.01127959916167765
-0.840791272646543
-0.7020481610189647
0.7025947840776982
0.5546296221631245
-0.7020481642863423
-0.7126680308142073
0.7025947800785626
-0.03361921575446577
0.9053849537705387
-0.0193252832534912
-0.6813210452694868
0.6122553099415882
0.06906573532428097
0.5387668573242382
0.5385007199663522
-1.077267577284427
0.4891666864185726
0.5254620596376287
0.5475068767661102
0.4585204441920047
-1.006027321013986
0.4955543268682088
0.4968932306409298
0.6122553158521366
-0.5256999806562351
-0.466444109357503
-0.5557591123761212
-0.5158222044851711
-0.1246546813499243
-0.01272022664529939
0.01272022756686719
0.509620290313233
0.5242022454016273
-1.040024450016154
0.5733708148444708
-0.2713080562722803
-0.8833088908032027
0.3434176625493563
-0.6326781359210567
0.3900167057654526
-0.0001544645807956021
-0.8284505670940159
0.8286050316698763
0.4208828512340451
-0.02355772782764674
0.8756286025801755
-0.9435182209423295
-0.834895513679507
0.05743889649878078
0.7774566172163527
0.5505562938812013
-0.4364319128597762
-0.1141243808881824
0.650062363107561
-0.7292370617228336
0.8843869411873779
-0.8281785325172698
-0.05620840849720498
-0.01305935094563701
-0.7904580815748177
-0.111005231312687
0.7155622626363104
-0.6045570313204268
-0.9406394582149397
0.9275801070756446
-0.7362190801478572
0.6886870228326719
0.0475320573244376
-0.8006757068018738
0.02829660462542766
0.7723791022665124
0.06177791796758756
0.04094073395232511
0.4330709062644141
0.05913129837087103
-0.8496536724244445
0.7905223739225815
-0.6445843871014622
0.5939679680342599
0.8900664662137604
0.0726551178320004
-0.9627215841630945
0.05517095303864417
-0.04987357506819551
0.3801643350646323
-0.3815712571810296
0.06562629359629184
0.8408134394783107
-0.840967909381362
-0.7316190615528231
-0.8097797201884611
0.01932163784662929
-0.1685314610767195
-0.8480187158327985
0.01984017523404659
0.6241080884879748
0.04865680516484984
0.01712866124997797
0.5334276176140796
-0.8142201130645228
0.8425167217378551
0.5657296575865083
-0.8520083031990694
-0.8679843404919714
0.03740061548832634
-0.03424823985723272
0.8344782285554386
-0.800229988677495
-0.01941369690851004
-0.7658672967456809
0.5442994902748394
0.1520508830835476
-0.0202581194532551
0.895886721044392
0.9850190033831631
0.860658769118544
-0.8408185988728356
0.147536246337811
-0.1475362481646267
-0.1178239674075895
-0.4671947162044047
0.03076279645748932
0.2714176836001641
0.03101162747805778
0.3850472730249449
0.8764730269990693
0.005754780086838683
-0.01548774873082539
0.6586049094112124
0.341395090611434
0.7835405260808208
-0.5836697518975271
-0.7780420292323379
-0.8115095800045364
-0.6799557319065309
0.6799557319021463
-0.1681030465411228
-0.1549072670830252
0.6017298465833437
-0.811369895679302
0.2096400491138442
-0.4939428689429227
-0.5688655374113409
0.2780857116382363
-0.9719778290367822
-0.8989974592496012
0.8427890396505968
-0.8199922871224823
0.8393139257869245
0.6484914196168228
0.134517755965806
-0.7830091755911036
-0.7639775223420812
-0.1462651655877747
0.7253147286756995
-0.5790495630782622
0.02252443514480994
-0.01324754344743402
0.01632691321035269
-0.003079368717241322
-0.3529896277204465
-0.1142050868220681
0.8798155593067446
0.7380354802294166
-0.2384227386316216
-0.499612741822677
0.6239111012758639
0.6855990654430093
-0.4709825602782669
-0.0003818344777417205
-0.2851997108169203
0.01547473758490979
0.7462520530491932
-0.7617267905152521
-0.3234864090942062
-0.07164762163202551
0.07588829307760983
-0.966062006318009
0.1252707379593106
-0.6768521380104815
0.05407751521460633
0.6403670547009712
-0.6944445698837226
-0.7566591245814986
0.07980698655489331
0.5894687701815873
-0.6611163917353767
0.1561634492660096
-0.3355090859281634
-0.7724406211723458
0.008463098830041283
0.3711649463512939
0.6002944539756704
-0.02635745806536399
0.02228139869606124
-0.02228140030009805
-0.01867047887203534
-0.05276552773391528
-0.2308801704222025
0.02056250701461312
-0.01480775303875304
-0.7237838194129811
0.2794101615121475
0.6784080208177765
-0.6902396974367617
0.01183167678884152
-0.5971548940441054
0.6512324087359442
0.6543450111276237
-0.0648762432001604
-0.6311640437643007
-0.1254950824127766
-1.049701980053261
0.01124040157844371
0.1362958491445175
-0.708309083175075
-0.7421692771530856
-0.7639118412282216
0.3658320417377294
-0.4074888807940711
0.4683051753556335
-0.06081629445228887
-0.674921717673553
-0.03338736539162279
0.499607776662557
0.7306819751778179
-0.2345238427641558
0.1107318709617002
0.957598910162662
0.4460816512255674
0.1325614173963179
-0.5786430686678125
-0.6776488595894183
0.002727143943121982
-0.04451046842036478
0.03126289800650389
0.6376317087469108
-0.7754500246762928
-0.00283499763411074
0.002834997126560291
-0.5999852042694394
0.6494819930445
-0.04949678872351438
-0.6605201975874651
-0.1138494746546172
-0.6718265631506904
0.05281316771669647
0.609851214804914
-0.1375853104582665
-0.8180917263385085
-0.5636489372747384
0.5718945865774431
-0.008245648407665203
0.6317337869323505
-0.619902109190511
0.3222997307270756
0.2137122224563675
-0.5360119531968441
-0.1045375699883418
-0.6028214877676928
-0.09162308006260408
-0.1539035526184581
-0.5108357829387511
0.4043532763241325
-0.4989537382315495
0.1259680296407388
0.6787302900483665
-0.8046983197016104
0.5991507714409845
-0.3749193231653653
-0.03256957055233788
0.05937909190561086
-0.5702148759608154
0.5514951864044675
-0.04031741945784015
-0.5111777671500106
-0.3126613559181482
0.3053031019713381
0.007358255186660849
0.4507678534323521
0.1226029569826297
0.0515235261735234
-0.316144607571696
0.1571284650178917
0.1590161427847825
0.2540183354277534
-0.01956709972865735
-0.2970904093027164
-0.3133974291107457
0.3612352686789486
-0.04783783618713781
0.7919846206729386
-0.6293502594996592
-0.03116993816429631
0.4995252468570493
0.284894442928981
-0.5233171866057098
0.5774420733266714
-0.5774420733252636
-0.2897901178089629
-0.5865197775193898
-0.2955196627383109
-0.5865197777607917
-0.5968895406362312
-0.8384795812676772
0.1699754814494089
-0.5985874582399926
0.8212273362272512
-0.003451970458846953
0.1190906802220639
0.4812037745191323
0.09673279079211167
0.1855124067531181
-0.03616146409222953
-0.1493509418868743
-0.02669288120113363
0.5909075813727532
-0.9428076098662939
0.4198836442713684
-0.003569739108200904
-4.109985976047446e-05
0.003610839051785979
-0.6439258037822551
-0.1321036078862966
-0.4657876274752292
0.5983490457525046
-0.5035990152003746
-0.3146965385544534
-0.2555183226431317
-0.2723403053320151
-0.1116912547386804
0.1116912555325536
0.1535237428384241
0.05771843379498029
0.1967528117982127
0.4487380734216558
-0.5698585278567934
0.1040708949566203
0.2533922478585016
0.4662505762498931
0.5337494243853541
0.6454914910349696
0.08090994789708801
0.003230146336923436
-0.08414009473731515
-0.2770206684370524
-0.5410710578934322
-0.5450838308593949
0.1145409032551996
-0.1264254333446641
0.01188453056055195
-0.1058522733086844
-0.3856164562394785
-0.04833659219591685
0.6581878221382149
-0.4993977961173549
-0.1445280076462201
-0.3277205946302578
0.2868802885784877
0.1273844687219625
-0.6081590774440949
-0.2042645256459094
-0.2625079636164154
0.0006470235848394733
-0.4209816082293114
0.3220353205224505
0.09894628786746423
-0.08929861221469451
0.2916849392315424
-0.8959304843719844
-0.4575818287797204
0.6314949361370706
-0.7731099733995593
0.6685724034589424
0.3413357177494236
-0.1259674259236677
0.2249684727435967
-0.0990010475085035
0.03133029473891379
-0.5861746748068751
0.02890955005629741
0.5572651245212946
-0.9006574587735464
0.547386752482704
-0.6652107199382907
-0.1000185745618407
0.1090933663860111
-0.1090933689032008
-0.3165264487088743
0.360564748610617
0.01959958146852576
0.02091170412390284
0.05999821450720969
0.5044024446147664
0.6670545160086954
-0.7392953489587694
0.02441592900278163
0.02042869849784085
0.001852686156557123
-0.006303675043808609
0.006303675937411875
-0.4102505431409396
0.53285349594742
0.01554266611729774
-0.01554266601372698
-0.7925887088333687
-0.05995702920039898
0.121734939728545
-0.450745379850542
0.5548162703336396
0.4495418493362038
-0.4990386385997157
0.1499954137669357
-0.1499954152797522
0.04425574562922731
-0.01229493010625581
-0.04116253907660611
-0.9765898425632478
0.5404166730541797
-0.4710668465000498
0.04094073375562232
0.5149884747623805
0.03054904123186625
-0.5455375161810845
-0.6161976042700397
0.1167998084231984
-0.3294526366403029
0.01358267514125706
0.3158699605488033
-0.1541707669410434
-0.08035309282480513
-0.5408863270718544
-0.04528834622186778
0.1362958495246841
-0.04139660757834351
0.03856160598803914
0.08170830166563273
-0.08170829908334447
-0.5308461857699756
0.4830083417113576
-0.4146816191919385
0.1613057692964945
0.6222347568226111
-0.09743929788897505
-0.005954473821538723
0.005954473963068832
0.533004817738537
-0.07473145429957807
0.006374715475172388
0.02720248303047773
0.03463707244907756
0.6894927398627791
-0.7642241942222368
-0.6628252295804306
0.6316552914283874
-0.1105020839908473
0.3135028443718408
0.7456859039719842
-0.01867047765829789
-0.2657043366875714
0.1484104762714396
-0.7446321176789947
0.4839217674807484
-0.4240497845606212
-0.1012091305337737
0.003413163067469065
-0.01469130339157024
0.02379267637404825
0.4123652253030386
-0.121647341354164
-0.3895304274294335
0.6290940991427377
0.01902387268657845
0.009201396304289245
-0.009201396589369894
-0.3553197286332443
-0.08210811394752439
-0.5604516828789441
0.5569997122896881
-0.2378199614002131
0.4647542490494704
-0.1505785023151727
0.7300642947944394
0.6707145656490668
-0.04139660678657285
-0.6162148223563229
0.5598902883155157
0.2826962295691543
-0.2791525066313011
-0.003543722280506111
0.5423566813094892
0.09343595160637957
-0.03873914626056082
0.1967736952393098
-0.1580345485794229
0.120447447178445
-0.1204474446241608
-0.8586556542140921
0.002459162772691297
-0.1130928930382023
0.140295374924576
-0.1317286711037035
0.1317286722131571
0.02042870117614122
-0.02462496599162498
0.6709711538136223
0.06002368455440311
-0.3228995856699252
-0.06271687044232478
-0.4712935623245493
-0.04502436605377039
-0.1515395670388891
0.1515395685967217
-0.03988435284104862
0.1434588505886962
-0.1434588519592891
0.1366776647163706
-0.1366776627050326
-0.3159647009575955
-0.1144849901078099
0.2262817139610399
0.1031357672738456
0.03481324384909203
-0.8212196433333608
-0.1975423472286212
0.1700964660009589
0.02125768102184695
-0.2648181538147295
0.1260054805393677
-0.1260054817426027
-0.414230678009066
-0.08472305722436568
0.2361056654201129
0.00257664343607236
0.04031170023620261
-0.5443165815842658
0.5779357973705392
-0.02710208146520373
-0.01278227078043802
-0.02565571491487662
0.01336076864485461
0.006536546653778822
-0.1844822894442679
0.1779457427319491
-0.1076540921318103
-0.227854996105378
-0.1446007757235203
0.1446007771416201
0.07261358979123313
-0.07261358907853545
-0.01915816938100161
-0.1086328101044332
0.1277909787041227
0.2359382017664251
-0.1831672533185438
-0.02133653865308503
0.0231892187105215
-0.1308094931947985
0.6138178380436814
-0.03907766483024058
0.4240067802309226
-0.04112474794316268
0.06344591698167427
-0.1533641499456758
0.1533641517883297
-0.6363011686118157
0.3084939123118645
-0.07911730437084967
-0.2344189648776771
0.003655377146772608
-0.1223754304507365
0.1626871314833687
0.1941114769431841
0.09708667885558102
0.09490896029193302
-0.06027188772415273
0.07293124043283675
0.04160966285111371
0.06404030115964815
0.106056167496624
-0.09881159711657872
0.2095434928901774
0.01203639886753739
-0.1136193488800819
-0.1022476842408419
0.09691386747848234
0.005333815376639879
0.01122730199576879
-0.02210087712994057
0.03752058105690959
-0.03752058093929475
0.07439826437942064
-0.05512195985980285
0.05512196017481103
-0.2244427937634478
-0.05017343175513055
0.01172761205463756
-0.1031709171550579
0.01623021853669116
0.1086161439081676
-0.1086161446815457
0.2930577589712841
-0.2710757925820196
0.1634216944182275
-0.05041881654564302
-0.2206569780574348
-0.01709455171850365
0.01709455128240156
0.3674099040375907
0.2852107834220557
-0.5277152086037615
-0.09394764781308529
-0.03247778315454065
0.5287156670316608
0.2102824739442913
-0.1686176539965946
-0.3818101495558315
0.07659521856361898
-0.1474640884607815
0.1870810540415659
-0.03961696516767577
-0.06700650286135318
0.06700650231698138
0.8222811225331352
-0.5604128760516075
-0.002502750458896658
0.01373005235525843
-0.02003741545633118
-0.2870108813078607
-0.01745337743940421
-0.01287209535703552
-0.1319787819040755
-0.5721916907334562
0.5560166202773935
-0.5685851718201956
-0.006938791239322326
0.09931040602061181
-0.001824582191175809
0.01668648894391193
-0.1675015022450171
-0.3364008970768621
0.2332299797337604
-0.05425118856689
0.0350930185668694
0.1320925391297696
0.1732105602239859
0.3400229075286288
0.2763172175100657
-0.2781418003767794
-0.06368607742184124
-0.1549183436584534
-0.2208362942106968
0.0746772170142624
-0.01063691328403667
0.2138863902604649
-0.1971999018068269
-0.08622892879274832
0.1591601744936049
-0.3548729549690997
0.208453361959402
-0.1922231433889911
0.08966959537844678
-0.4792000208075323
0.1742089644550974
0.1703475545400361
-0.2565764952745379
0.0728080752342856
-0.1945774139840093
0.1771240369650794
0.01738933554267245
0.1417708366601731
-0.0395792825668226
0.06605759449984856
0.4669472236927801
0.02042602819489441
-0.07986765600725171
0.0563508131608965
0.1256040674708092
-0.2604532570124763
-0.2309411996802911
0.5597060566553931
0.1573174768169408
0.07878819053823959
0.07531504418468106
-0.03105396396942845
-0.0005374083562993484
-0.003006315484467719
-0.03263721643477587
0.1709255345033424
-0.1778643262326881
-0.05607498244627682
0.02068646869190756
-0.1468917824292922
-0.05280659275212055
0.1534684954341693
0.2770703112932161
-0.04047443173851348
0.01282336445795806
-0.2552565445610849
-0.1305265162443669
0.235973845065398
0.1789578006450663
0.1295361081114583
0.02166323833674376
0.08871331028748697
0.05209018966292554
0.452312254961101
0.01737022451938841
0.09756035476965694
0.04327413662679055
0.07205707006001075
-0.1153312053016722
-0.2425044227163095
-0.2006210444233341
-0.020035937981447
-0.2021297066184082
0.2752924779228311
)
;

boundaryField
{
    FrontBack
    {
        type            empty;
    }
    Top
    {
        type            calculated;
        value           uniform 0;
    }
    In
    {
        type            calculated;
        value           uniform -1;
    }
    Bottom
    {
        type            calculated;
        value           uniform 0;
    }
    Out
    {
        type            calculated;
        value           nonuniform List<scalar> 10(1.036673563545136 1.064466837729121 1.022203221727981 1.021016387601436 0.9970211631705135 1.012715435154323 1.033822535730204 1.062808406330179 0.8672321949132472 0.8820394402843182);
    }
    circle
    {
        type            calculated;
        value           uniform 0;
    }
}


// ************************************************************************* //
