/*--------------------------------*- C++ -*----------------------------------*\
| =========                 |                                                 |
| \\      /  F ield         | OpenFOAM: The Open Source CFD Toolbox           |
|  \\    /   O peration     | Version:  2412                                  |
|   \\  /    A nd           | Website:  www.openfoam.com                      |
|    \\/     M anipulation  |                                                 |
\*---------------------------------------------------------------------------*/
FoamFile
{
    version     2.0;
    format      ascii;
    arch        "LSB;label=32;scalar=64";
    class       volScalarField;
    location    "1740.5";
    object      yPlus;
}
// * * * * * * * * * * * * * * * * * * * * * * * * * * * * * * * * * * * * * //

dimensions      [0 0 0 0 0 0 0];

internalField   uniform 0;

boundaryField
{
    FrontBack
    {
        type            empty;
    }
    Top
    {
        type            calculated;
        value           nonuniform List<scalar> 
15
(
142.288410954051
133.5885027480187
138.0678780777605
144.4104294810234
159.7702230119362
131.3681732140984
140.1380147179599
135.3605051924065
153.4524990220403
135.7314423494169
136.0949504239974
136.7695235712268
125.2662885336914
132.9128840508074
123.9535003875229
)
;
    }
    In
    {
        type            calculated;
        value           uniform 0;
    }
    Bottom
    {
        type            calculated;
        value           nonuniform List<scalar> 
15
(
155.566575547496
158.1187798179738
141.083256965666
142.0420743112561
141.1767606760272
148.424287521157
142.6985192190695
143.1480259596778
143.4221001080219
134.0568690155849
125.7252021309257
141.5538517309966
122.4052284636015
123.4869858347581
124.1295837853702
)
;
    }
    Out
    {
        type            calculated;
        value           uniform 0;
    }
    circle
    {
        type            calculated;
        value           nonuniform List<scalar> 
32
(
56.15693150354409
22.19181899023573
65.29398422903218
24.192408544819
19.55722444667597
56.15549117896746
56.70409860292897
23.85466166212261
22.34726523703893
65.53133720520984
39.93863082703244
62.99283227496832
50.47765395412902
15.79615420343004
23.35912082157533
17.95879533726326
39.14055441031628
59.69491908141968
60.99736480112813
24.31001600960157
65.72778478652762
63.82324165090175
63.0048729935541
59.93293418322099
64.0967157983255
45.92376428151444
66.38483835412418
32.02085775052658
38.03230188998683
55.76819600125418
20.96896700451908
43.17441339777348
)
;
    }
}


// ************************************************************************* //
