/*--------------------------------*- C++ -*----------------------------------*\
| =========                 |                                                 |
| \\      /  F ield         | OpenFOAM: The Open Source CFD Toolbox           |
|  \\    /   O peration     | Version:  2412                                  |
|   \\  /    A nd           | Website:  www.openfoam.com                      |
|    \\/     M anipulation  |                                                 |
\*---------------------------------------------------------------------------*/
FoamFile
{
    version     2.0;
    format      ascii;
    arch        "LSB;label=32;scalar=64";
    class       volScalarField;
    location    "1207.5";
    object      yPlus;
}
// * * * * * * * * * * * * * * * * * * * * * * * * * * * * * * * * * * * * * //

dimensions      [0 0 0 0 0 0 0];

internalField   uniform 0;

boundaryField
{
    FrontBack
    {
        type            empty;
    }
    Top
    {
        type            calculated;
        value           nonuniform List<scalar> 
15
(
142.2757486461495
133.5735434257645
138.0701241534512
144.4054724173921
159.7717306425869
131.3687495671208
140.1268221642697
135.3594018851646
153.4363045204911
135.7440263139239
136.0950802165083
136.771278051147
125.2482132111654
132.9041760665537
123.9473213478322
)
;
    }
    In
    {
        type            calculated;
        value           uniform 0;
    }
    Bottom
    {
        type            calculated;
        value           nonuniform List<scalar> 
15
(
155.5651703468027
158.1139116304661
141.0886549053361
142.0636594419529
141.1818530923084
148.4393978349839
142.7030669761561
143.1634492522809
143.4238656307455
134.0557346234264
125.7315806460975
141.5524927797623
122.4110244304265
123.4914202926486
124.1382929588746
)
;
    }
    Out
    {
        type            calculated;
        value           uniform 0;
    }
    circle
    {
        type            calculated;
        value           nonuniform List<scalar> 
32
(
56.36723838803376
22.16607911501144
65.32911373127941
23.59393273724602
19.0896319174372
56.16493043482809
56.8184431560467
24.14874556199539
22.3619189796497
65.54930338435038
40.1882425384912
63.05796483761077
50.29967149446259
13.54617094273229
23.7511004145243
18.83528780769791
38.880071560973
59.58501990843526
60.99849013990148
24.85524122428338
65.71029329564327
63.83089200308323
62.94316178069268
59.93327159494991
64.08931823071357
45.94483071391731
66.35163154788424
32.0605977247703
38.0228837729998
55.76391043142929
21.05595083786216
43.16602356203272
)
;
    }
}


// ************************************************************************* //
