/*--------------------------------*- C++ -*----------------------------------*\
| =========                 |                                                 |
| \\      /  F ield         | OpenFOAM: The Open Source CFD Toolbox           |
|  \\    /   O peration     | Version:  2412                                  |
|   \\  /    A nd           | Website:  www.openfoam.com                      |
|    \\/     M anipulation  |                                                 |
\*---------------------------------------------------------------------------*/
FoamFile
{
    version     2.0;
    format      ascii;
    arch        "LSB;label=32;scalar=64";
    class       surfaceScalarField;
    location    "34.4";
    object      phi;
}
// * * * * * * * * * * * * * * * * * * * * * * * * * * * * * * * * * * * * * //

dimensions      [0 3 -1 0 0 0 0];

oriented        oriented;

internalField   nonuniform List<scalar> 
1171
(
-0.945451
0.945451
0.781293
-1.08789
0.306602
-0.409665
-0.725093
1.13476
0.0545494
-0.0630612
-0.275316
0.338377
-0.781293
0.0896109
0.691682
0.945958
-0.207059
-0.7389
0.856534
-1.03549
0.178958
-0.355874
-0.0343442
0.390218
-0.000950965
0.605772
-0.604821
-0.456614
0.939883
-0.483269
-0.418935
1.02444
-0.167911
0.303686
0.0678516
-0.371538
1.00921
0.0152361
0.328366
-0.0246796
1.04607
-0.0368611
0.629021
-1.03869
-0.790771
0.610948
0.179822
0.412237
-0.868851
0.562958
-0.91666
0.353702
-1.07864
0.668174
0.410462
-0.641976
0.641025
0.0358819
-0.256359
0.220477
0.00567297
-0.621646
0.615973
0.466305
-0.500649
-0.847659
0.890442
-0.0427835
1.01586
0.0302136
0.922409
-1.07758
0.155166
1.05234
-0.0364791
-0.703634
-0.0871371
1.2443
-0.850869
-0.393427
0.204676
-0.0727863
-0.417079
0.489865
-0.274141
0.181509
0.0926313
-0.602849
-0.485046
0.971693
-0.0492838
-0.0108037
0.864616
-0.853812
0.51794
0.726355
0.532986
0.0257116
0.440594
-0.78516
-0.105815
0.890975
0.593982
0.228021
-0.822003
0.0182305
0.587839
-0.606069
-0.507427
-0.571208
-0.389581
-0.687994
0.029026
0.242752
-0.271778
-0.939566
-0.0278861
0.967452
0.375537
0.0146813
0.867887
0.0780715
-0.603272
-0.038704
0.0400724
-0.825232
0.184438
0.894079
-1.07852
-0.40385
0.0178317
0.386018
-0.707548
-0.232018
-0.697119
0.881557
0.594392
0.345492
-0.579109
0.989062
-0.818323
-0.170739
0.0837204
-0.195185
0.111465
-0.45718
-0.0434695
-0.308787
0.903178
-0.0205596
0.446105
-0.425546
-0.473386
1.06737
0.710757
-0.816572
0.391625
-0.0811511
-0.310474
0.769122
-0.769122
-0.956655
0.0379581
-0.313274
-0.695139
0.684335
-0.0301245
-0.141675
0.1718
0.89238
-0.0277637
1.04037
-0.812349
0.221648
-0.317483
0.0958347
1.00736
-0.139472
-0.680325
-0.0425509
0.722876
0.149385
-0.234202
0.0848173
0.808132
-1.01519
-0.446171
0.312849
0.133322
0.639137
-0.633464
0.882713
-0.398218
-0.484495
0.493132
-0.694977
0.0375985
0.657379
0.185355
0.66523
0.0510635
-0.716293
0.131963
-0.0940051
-0.517137
0.113287
0.0347613
-0.902109
0.867348
-0.553794
-0.763031
0.0593968
0.500217
-0.0596231
0.274343
-0.832948
0.558605
0.424173
0.575827
0.596447
-0.556375
-0.371066
-0.0422254
0.413291
0.55192
0.217202
-0.645795
0.664026
0.0831376
0.897743
0.00221427
-0.682539
-0.765732
0.800493
0.622679
0.10375
0.37112
-0.474869
-0.157059
0.496842
0.0909968
0.787817
-0.62313
-0.164687
0.650431
0.338631
-0.428154
0.705089
-0.60134
0.410289
0.152669
-0.0571166
-0.655137
-0.137535
0.792672
-0.120824
-0.648298
-0.612503
0.36492
0.247583
0.657476
-0.655261
0.308253
1.02483
0.0155389
-0.765732
0.0133671
0.0703533
0.710757
0.780142
-0.780142
0.842712
-0.828791
-0.0139216
-0.455161
0.879335
-0.192227
-0.32491
0.76276
-0.668482
-0.094278
-0.801871
0.146734
0.108532
-0.711803
0.816572
-0.973631
-0.168996
0.180283
-0.0112874
0.124697
-0.985179
0.860481
0.550403
-0.0174169
-0.291688
0.596638
-0.304949
-0.653143
0.77784
-0.160847
0.748103
-0.779905
0.0318017
1.20342
-0.663781
-0.539635
0.723025
-0.0715906
-0.0166099
0.022543
-0.00593308
-0.801734
-0.942652
0.217558
-0.695139
0.572553
-0.554721
-0.120073
0.732614
-0.61254
0.779653
0.165797
0.492513
0.507487
-0.000166613
-0.625139
0.625306
0.671051
0.116766
-0.723025
0.800493
0.178493
-0.434852
-0.0270339
0.00490724
0.0221266
0.669847
-0.442637
-0.22721
0.691682
0.00990354
-0.194548
0.539919
0.129928
-0.00885113
0.00161266
0.00723847
0.00229864
-0.0189085
0.118105
-0.199256
-0.940989
0.0396529
-0.140496
-0.0508905
0.113639
0.758582
0.742879
-0.167052
0.361099
-0.481172
-0.163028
0.384677
0.637604
0.0540783
0.230561
-1.05935
-0.973631
0.315913
0.684335
-0.157614
0.0159391
-0.798235
0.975245
-0.17701
0.483673
-0.0976552
0.795757
0.305023
0.256896
0.0714704
-0.680611
0.680611
0.223418
0.667557
-0.0111294
0.457235
0.478736
0.0117706
-0.0388045
0.550276
0.000126388
-0.653143
0.571173
0.191587
0.033205
-0.0106621
-0.637604
0.175011
0.800234
0.0191021
-0.734695
0.715593
0.757028
-0.823098
0.0660694
-0.779653
-0.0309799
0.042202
-0.0112221
0.0833402
-0.134974
-0.109046
0.24402
-0.0065943
-0.00225684
0.781489
-0.762387
0.851523
0.283235
-0.509529
-0.431689
0.941218
-0.00145671
0.00145671
0.138058
0.339267
0.808156
-1.14742
-0.19984
-0.562824
0.762664
-0.0194735
0.191273
0.38678
-0.237395
1.04366
-0.704393
0.726168
0.930559
-0.122403
0.194553
0.77784
0.609929
0.252963
0.637479
-0.648298
0.319389
-0.0537137
-0.0216092
0.0753229
0.842994
-0.0503551
-0.792639
-0.573068
0.536589
0.544839
-0.573068
-0.609929
0.536589
-0.00665816
0.986002
-0.134479
-0.55192
0.472556
0.0793638
0.510987
0.636055
-1.14704
0.462686
0.580974
0.630661
0.487721
-1.11838
0.357257
0.573302
0.472556
-0.51734
-0.5337
-0.71202
-0.473085
-0.0472912
-0.00265118
0.00265118
0.669716
0.565659
-1.03874
0.745457
-0.374337
-1.08106
0.417275
-0.674839
0.442821
0.0479535
-0.993641
0.945688
0.45119
0.0852471
0.757747
-1.20665
-0.959462
-0.0160387
0.975501
0.27136
-0.0560273
-0.215333
0.756275
-0.805559
1.03248
-1.04188
0.00940188
0.03231
-0.65544
-0.0825268
0.8487
-0.766174
-0.896693
0.929003
-0.621032
0.626293
-0.00526066
-0.901522
0.288248
0.613274
0.00295395
-0.00441067
0.427012
0.174165
-1.04801
0.873841
-0.722033
0.721866
1.02124
0.0642895
-1.08553
0.0617751
0.00728116
0.40601
-0.358209
0.0407262
0.978997
-0.931044
-0.618287
-0.766873
0.111433
-0.128297
-1.06544
0.023559
0.58923
-0.228131
-0.0211729
0.292533
-0.474372
0.762621
0.484495
-0.908394
-0.832404
0.153599
-0.225564
0.696725
-0.471162
-0.119756
-0.843851
0.578728
0.1783
-0.222353
0.9801
0.912965
1.01779
-0.994233
0.0450734
-0.0450734
-0.0935453
-0.300532
0.244505
0.342408
-0.0264947
0.266799
0.860344
0.00224993
-0.00884423
0.658123
0.341877
0.797536
-0.602849
-0.758271
-0.521517
-0.493805
0.493805
-0.206279
-0.106995
0.672789
-1.00229
0.329499
-0.486744
-0.571013
0.360907
-1.0489
-1.01225
1.02165
-0.610713
0.722145
0.684455
0.197424
-0.881878
-0.526777
-0.163833
0.836048
-0.672215
0.151908
-0.00308058
0.00379451
-0.000713928
0.0205594
-0.321091
1.0337
0.634257
-0.338513
-0.295744
0.418924
0.738586
-0.515167
0.0096298
-0.28377
0.201078
0.729317
-0.930395
-0.364446
-0.0580069
0.129916
-0.926716
0.134077
-0.804864
0.0489367
0.782883
-0.83182
-0.90719
0.102326
0.700608
-0.758615
0.231938
-0.366912
-0.378685
-0.148092
0.371907
0.744679
-0.0395893
0.00480151
-0.00480151
-0.00103852
-0.0334961
-0.0202176
-0.0192788
0.0215288
-0.606817
0.329556
0.7713
-0.860955
0.0896548
-0.767563
0.8165
0.763487
-0.0628793
-0.756936
-0.150254
-1.19876
0.0206342
0.0244392
-0.405738
-0.839463
-0.838182
0.444755
-0.27323
0.311477
-0.0382475
-0.614761
0.209023
0.548648
0.712672
-0.0321893
-0.0187012
1.07481
0.482959
0.215607
-0.698566
-0.442682
-0.172079
-0.00738294
0.00430236
0.725299
-0.862835
0.00716471
-0.00716471
-0.693603
0.704289
-0.0106857
-0.463855
-0.0819067
-0.708589
-0.0180227
0.643328
-0.0504534
-0.872422
-0.00899401
0.245836
-0.236842
0.868064
-0.778409
0.336209
0.261195
-0.597404
-0.114164
-0.734671
-0.0971487
-0.210644
-0.0270168
0.470578
-0.514047
0.158546
0.730865
-0.889411
0.493132
-0.160836
-0.112393
-0.00409527
-0.0229215
0.596561
-0.0904905
-0.506071
-0.28245
0.302831
-0.0203809
0.573799
0.171658
0.0288162
-0.309343
0.166714
0.142629
0.00574884
0.0076183
-0.236826
-0.00165357
0.216283
-0.21463
0.860245
-0.413522
-0.0503334
0.553888
0.249548
-0.588061
0.417023
-0.417023
-0.200112
-0.400661
-0.213283
-0.400661
-0.640772
-0.849364
0.180882
-0.169017
0.735142
0.0418401
0.187897
0.556782
0.107908
0.115969
0.0106114
-0.126581
0.0768196
0.801409
-1.06398
0.632295
0.063649
0.0460837
-0.109733
-0.735094
-0.176183
-0.550787
0.766394
-0.552323
0.0987001
-0.121622
-0.336969
-0.0822053
0.0822053
0.0402844
0.00191758
0.136604
0.319095
-0.761696
0.210909
0.0420398
0.470837
0.529163
0.750682
0.0242517
0.0215654
-0.0458171
-0.290419
-0.582003
-0.518158
0.111519
-0.116791
0.00527183
-0.105555
-0.415401
0.0168811
0.626447
-0.578512
-0.156582
-0.0964851
0.0449756
0.0264987
-0.27215
-0.195668
-0.177238
-0.0220183
-0.488402
0.423866
0.0645363
-0.000787225
0.29302
-0.864228
-0.536471
0.703267
-0.844504
0.73034
0.464516
-0.038845
0.0688634
-0.0300183
0.0380907
-0.633871
0.00253025
0.631341
-0.893554
0.631164
-0.724709
-0.0423307
0.00662663
-0.00662663
-0.299713
0.458554
-0.0525441
0.00802455
0.0162272
0.583089
0.515128
-0.679815
0.0129318
0.00772523
-0.00292372
0.00314232
-0.00314232
-0.514478
0.686136
0.0129
-0.0129
-0.775465
-0.00832916
0.0112831
-0.488481
0.69939
0.552323
-0.563009
0.0679013
-0.0679013
0.0169122
-0.0557167
0.0140351
-1.02973
0.490096
-0.552726
-0.00441067
0.592621
0.0137964
-0.606418
-0.698825
0.120313
-0.31963
-0.0127702
0.3324
-0.0182661
-0.0139232
-0.601484
-0.0323871
0.0244392
0.00578078
0.00138393
-0.00242981
0.00242981
-0.51675
0.302121
-0.446589
0.134481
0.663055
-0.141784
-0.001007
0.001007
0.508435
0.0203832
0.00808335
0.0178125
-0.00126834
0.586041
-0.565658
-0.741358
0.691024
-0.0941718
0.322934
0.78813
-0.00103852
-0.113625
0.102963
-0.655331
0.552137
-0.249919
-0.106204
-0.0227563
-0.0256509
0.00228654
0.478862
-0.0895279
-0.416543
0.702577
-0.000491138
0.00846481
-0.00846481
-0.213381
-0.197655
-0.573179
0.615019
-0.147891
0.50711
-0.228137
0.857158
0.903736
0.00578078
-0.775251
0.709187
-0.0113921
-0.0760151
0.0874072
0.690237
0.0931444
-0.0131736
0.0730043
-0.0598306
0.0107438
-0.0107438
-0.771125
0.022828
-0.0425985
0.0604111
-0.0881125
0.0881125
0.00772523
-0.00204552
0.752085
0.0481489
-0.320395
-0.0950058
-0.520217
-0.107877
-0.0690995
0.0690995
-0.0289049
0.0798971
-0.0798971
0.0290226
-0.0290226
-0.353594
-0.0745597
0.242579
0.0702699
0.0555325
-0.730624
-0.0587826
0.162332
0.016161
-0.256464
0.0797291
-0.0797291
-0.465488
-0.0485599
0.23342
-0.0129428
0.00335097
-0.638302
0.64496
0.0663526
-0.0952575
-0.0157513
-0.0399654
-0.0119958
-0.154873
0.166869
-0.15053
-0.216382
-0.0833764
0.0833764
0.0561278
-0.0561278
-0.0303478
-0.094804
0.125152
0.020296
-0.186616
-0.0122179
0.00929414
-0.314714
0.616835
-0.0260774
0.384676
0.00568283
0.00155564
-0.0537955
0.0537955
-0.722179
0.322384
-0.127831
-0.211451
-0.0227518
-0.0206255
0.0239765
0.204038
0.0399817
-0.00120729
-6.10526e-05
0.0820312
0.0294878
0.0545852
0.107747
-0.0150632
-0.00363804
0.0013001
0.00646556
0.0046579
0.0107135
-0.0153714
-0.000739576
0.0051917
0.0288592
-0.0288592
0.0523787
-0.0409197
0.0409197
-0.191495
0.0080212
0.0249235
-0.0770515
0.0182788
0.0756793
-0.0756793
0.268574
-0.246043
0.0955126
-0.068144
-0.177899
-0.0172362
0.0172362
0.405566
0.251813
-0.516623
-0.0808087
-0.0359821
0.540047
0.0045447
-0.0736438
-0.468509
0.0798114
-0.155234
0.172636
-0.0174027
-0.0461915
0.0461915
0.867942
-0.592263
-0.0125123
0.0117727
-0.00590717
-0.283178
-0.000167978
0.00473602
-0.0428435
-0.621371
0.568777
-0.657233
0.014277
0.203385
0.015304
0.0247728
-0.161141
-0.337259
0.260208
-0.0576165
0.0272687
0.170279
0.132552
0.158922
0.269019
-0.253715
0.00604184
-0.112899
-0.224221
0.0692395
-0.0146543
0.16596
-0.141188
-0.0685306
0.150562
-0.396038
0.127975
-0.109696
0.0601869
-0.47673
0.177372
0.174799
-0.24333
0.00398441
-0.175422
0.175254
0.00404985
0.146512
-0.0280197
0.0521301
0.456305
0.011623
0.0328565
-0.00478043
0.0347601
-0.241624
-0.203937
0.588762
0.171354
0.0620663
0.0811498
-0.0631157
0.0891392
-0.00173202
-0.0301361
0.168897
-0.15462
0.035143
-0.00321811
-0.103753
-0.0289098
0.031505
0.253655
-0.00399313
0.0491738
-0.314037
-0.00590199
0.215525
0.14507
0.177315
0.0562645
0.0990744
0.0452669
0.537822
-0.0140713
0.100701
0.0447905
0.0640018
-0.108792
-0.26481
-0.201334
0.0234356
-0.223075
0.290601
)
;

boundaryField
{
    FrontBack
    {
        type            empty;
    }
    Top
    {
        type            calculated;
        value           uniform 0;
    }
    In
    {
        type            calculated;
        value           uniform -1;
    }
    Bottom
    {
        type            calculated;
        value           uniform 0;
    }
    Out
    {
        type            calculated;
        value           nonuniform List<scalar> 10(1.09335 1.02833 1.24572 0.93823 1.12378 1.04639 1.23537 1.05776 0.617135 0.613944);
    }
    circle
    {
        type            calculated;
        value           uniform 0;
    }
}


// ************************************************************************* //
