/*--------------------------------*- C++ -*----------------------------------*\
| =========                 |                                                 |
| \\      /  F ield         | OpenFOAM: The Open Source CFD Toolbox           |
|  \\    /   O peration     | Version:  2412                                  |
|   \\  /    A nd           | Website:  www.openfoam.com                      |
|    \\/     M anipulation  |                                                 |
\*---------------------------------------------------------------------------*/
FoamFile
{
    version     2.0;
    format      ascii;
    arch        "LSB;label=32;scalar=64";
    class       volScalarField;
    location    "356";
    object      yPlus;
}
// * * * * * * * * * * * * * * * * * * * * * * * * * * * * * * * * * * * * * //

dimensions      [0 0 0 0 0 0 0];

internalField   uniform 0;

boundaryField
{
    FrontBack
    {
        type            empty;
    }
    Top
    {
        type            calculated;
        value           nonuniform List<scalar> 
15
(
142.2743339797381
133.5516126818797
138.062078629996
144.3831261747966
159.7593496626067
131.366539108672
140.108299254686
135.3392456872935
153.4381285227904
135.7348896464653
136.0789580195804
136.7803183705117
125.2398874995816
132.9021719874987
123.9518935820184
)
;
    }
    In
    {
        type            calculated;
        value           uniform 0;
    }
    Bottom
    {
        type            calculated;
        value           nonuniform List<scalar> 
15
(
155.5673488252721
158.1122787242714
141.1078151468145
142.0797414563209
141.1899729157857
148.4593322132804
142.7170187930687
143.1677435783343
143.4224459319844
134.06684157265
125.7392674567385
141.5621961980159
122.4121470622209
123.4894570788244
124.1456433305147
)
;
    }
    Out
    {
        type            calculated;
        value           uniform 0;
    }
    circle
    {
        type            calculated;
        value           nonuniform List<scalar> 
32
(
56.14348663326608
21.69288464109899
65.21559630131782
25.97758635799579
20.10830204985642
56.29438613350086
56.66290807995979
24.01831690677929
22.07773803612107
65.44158336631197
39.96175976354634
62.9285939913845
50.55494082670046
16.3671267461483
22.75052924944957
19.37675644234669
39.18632546415582
59.78326225558452
61.11282412231862
26.61499254590528
65.82246011035994
63.72225190401795
63.09237004257567
59.81757507977389
64.19856625571437
46.09945232952022
66.47645752664964
32.26422753314269
37.83005998127761
55.63120938474927
21.45826854894143
43.02465488689052
)
;
    }
}


// ************************************************************************* //
