/*--------------------------------*- C++ -*----------------------------------*\
| =========                 |                                                 |
| \\      /  F ield         | OpenFOAM: The Open Source CFD Toolbox           |
|  \\    /   O peration     | Version:  2412                                  |
|   \\  /    A nd           | Website:  www.openfoam.com                      |
|    \\/     M anipulation  |                                                 |
\*---------------------------------------------------------------------------*/
FoamFile
{
    version     2.0;
    format      ascii;
    arch        "LSB;label=32;scalar=64";
    class       volVectorField;
    location    "561";
    object      U;
}
// * * * * * * * * * * * * * * * * * * * * * * * * * * * * * * * * * * * * * //

dimensions      [0 1 -1 0 0 0 0];

internalField   nonuniform List<vector> 
808
(
(0.756259564741974 -0.01751650067834828 0)
(1.031216172760975 -0.01249185755997071 0)
(1.116488806586166 -1.420470629894159e-05 -1.805467214052229e-20)
(1.085127250038177 0.01258283916638872 0)
(1.361661606447385 0.01553855583614555 -3.886197270040805e-19)
(1.038642165300738 -0.009359440905989154 -7.16854275498776e-20)
(1.013752924156963 -0.02028885762019316 -2.333817243455445e-20)
(1.07856035274744 -0.004754167715228568 8.928086503905394e-21)
(1.252449616978588 -0.01994307243944855 6.337999824828013e-20)
(1.084469819239559 0.009226894209825599 0)
(1.012677850143107 -0.01174753245062618 0)
(1.30404751246262 -0.05258626099143246 -3.532590800727411e-19)
(1.086005554480117 -0.001551460334234845 2.029670822768341e-20)
(0.6750368961614597 0.006416838711881544 0)
(1.284111072315119 -0.120618436022903 0)
(1.081748325624078 0.0001123470845334034 -3.808143345776966e-20)
(1.232899120212654 -0.1525270852279731 -1.002682962510015e-19)
(1.074308899766586 -9.743607963932144e-05 3.155471472295003e-20)
(0.9919801785061021 0.006749718171104437 0)
(1.026810605906678 0.009094641470143236 0)
(1.040923863119046 -0.01429031289281385 0)
(0.9874987029647195 0.04491849408824327 0)
(1.051067742653623 -0.006174783850792113 5.589106040703529e-20)
(1.053472858495061 0.008384270627262925 0)
(0.9333963354354816 0.1990515798173132 4.595116073464569e-19)
(1.164666430121257 -0.09044242691143556 0)
(1.184494304850449 -0.01877953036701494 1.57499694758983e-19)
(1.077270936474671 0.009454041491391205 5.205253274066465e-20)
(1.084221436800386 0.001903857684604064 5.062096093416938e-21)
(1.07206565447592 0.03097723465156137 0)
(1.075624570276271 0.002498786294826838 -1.174931594195308e-20)
(1.033276765235781 0.006261317830760246 -1.938124819012458e-19)
(1.059865135007123 0.01479614142394967 -2.397667226356873e-20)
(1.088984888597712 0.005191658423184939 -2.92715348821624e-20)
(1.119765248239809 0.03706053093114205 0)
(0.7550498912424208 -0.121149596019836 -4.541660860514111e-19)
(0.95436857337902 -0.005758160641209088 0)
(1.068996703279184 0.02248703820192106 0)
(1.068844682902689 0.007290755780634824 0)
(1.073624099013621 0.008782156354438709 -2.831034215239609e-20)
(1.09222184678497 0.02291821151743994 1.103844714581216e-19)
(1.149573325937871 0.002931659873181328 2.163788096356449e-19)
(1.095625525156471 -0.002483922736040491 0)
(1.015826317776812 -0.009209095951686444 0)
(1.129382878628012 -0.09859624826151053 -1.662450936696748e-19)
(1.044072201813206 -0.01175875688415448 -8.035822624203013e-20)
(1.058440749728103 0.02668126021111068 -2.825827929940009e-20)
(1.229770173055368 -0.1115016468302912 -5.619568746933992e-20)
(1.067752333960094 0.01227135396291654 -4.221290868873461e-20)
(1.255473940228312 0.01726546670458287 0)
(0.9968974545064715 -0.01801688840506891 2.073734257066743e-21)
(1.044541136825598 -0.002401757321292487 0)
(1.087372125852103 -0.002369154249402709 0)
(0.9976624239268723 0.007155607570426378 -1.89316242459059e-20)
(1.252395779903023 0.03389163366834803 -2.337123377232294e-19)
(1.06384339314609 0.01843090766451363 6.089572538103519e-20)
(0.9887160680934318 0.008928794161953036 0)
(1.017460549886311 -0.01117128189192794 2.443425310697614e-20)
(1.106710994986647 -0.001060941264646775 -1.187369677246639e-19)
(1.061769942380853 0.03118223620731062 0)
(-0.06447644290492077 -0.02092603062216384 7.135251859242462e-20)
(1.153963900009802 -0.05164360653783281 -1.898963190098566e-19)
(1.002599655461233 -0.00867755658055697 -2.685763576102341e-20)
(1.183611597028032 0.0659429034528104 -1.217068958195284e-19)
(0.9979561200299523 -0.01056683119836552 2.997939226445087e-20)
(1.083840242926498 -0.00554665470500006 0)
(1.242831971741687 0.09523391947054441 0)
(0.6960168767870036 0.003189063903893877 -7.495687170648618e-20)
(0.9899318729358735 -0.01539674918809815 -3.122780800138943e-20)
(1.458257752125338 -0.01729164198403715 4.475543227858404e-19)
(1.06066185525941 0.007554025673194034 -6.760048027376133e-20)
(1.365374656787981 0.09772499409371921 2.910172627386111e-19)
(1.054771470876634 0.006765802124061791 -1.842192896890736e-22)
(1.081166455443576 -0.01411358930585061 -4.960648231289845e-22)
(1.163473575796558 -0.2351257983744445 0)
(1.022549381046211 -0.01441446696003404 0)
(1.017926250873046 0.01760332382582171 -3.109127810247666e-20)
(1.388152616634406 0.3500495168008524 4.179601537906815e-19)
(1.097031627957666 -0.04200226595163252 9.326572991831842e-20)
(1.046234536448809 0.2106341846989096 2.499109203769593e-19)
(1.124456297794091 -0.06323971518856754 1.158366317186833e-19)
(0.9221493585008784 0.00517707445513118 0)
(0.9755324503415534 0.01858985701476387 0)
(1.004056872896737 -0.04872743314000717 2.82752864224536e-21)
(1.01093602212712 -0.01322953109895875 7.425564237212001e-21)
(1.030955148551512 0.02571674618280981 1.391371276267808e-20)
(1.527350305024878 0.0368486271407421 3.266173613289225e-19)
(1.291022441860046 0.07145657841604433 5.513782194130649e-19)
(1.072666410399047 0.00288212422157916 -9.143984301336917e-20)
(1.198800180119834 -0.09800010320477014 0)
(1.033880067569351 0.001505079973803863 1.332414600730831e-19)
(1.163351954922851 0.02134910052696567 -3.199059249446543e-19)
(1.001486754236624 0.03239937167317377 0)
(0.9996296260919565 0.001990817213178868 0)
(1.044263887953852 -0.0003453297035964583 7.759506760014664e-20)
(1.209704507380817 0.1031467479943797 4.01877706863565e-19)
(1.011098654293545 0.006949055794759179 0)
(1.088796169438315 -0.0716921803934004 -1.058819953299195e-19)
(1.149189660612106 0.03603727138277241 0)
(1.209230927127611 0.0920213231758573 -1.899632876531999e-19)
(1.108081380230698 -0.02856419368332071 -7.639177829761913e-20)
(1.027930564361757 0.01155913855471146 0)
(1.085452360813113 -0.004679455514292044 0)
(1.020085789000668 0.02558407424935544 8.084459933774185e-20)
(1.074627149204403 0.05339724473267193 -9.161689457832998e-21)
(1.103672111860222 -0.004370906968784698 6.263448391421181e-20)
(1.106307394927838 -0.09709641330793571 1.548244660781801e-19)
(0.9592337710863094 -0.003001451452836295 0)
(1.066574865242493 0.0313972756498257 3.828903493176936e-20)
(1.167841906605769 -0.0759513022792873 2.320654654895797e-19)
(1.053669094278098 0.04479303781344614 -2.904787371886775e-20)
(1.02276219838577 0.06769366579329847 3.719939861719824e-20)
(1.090718537684151 0.02624362485383622 0)
(1.011864236221794 0.01612507004032778 0)
(1.02897191100834 0.009433598266898616 7.915691715493126e-20)
(0.9486861460187441 -0.03277546588508041 0)
(1.053328434706817 -0.005649251071719085 -7.799839652360924e-21)
(1.339701993261323 0.05943394913777778 -1.58313085602648e-19)
(1.079872617167201 -0.01334614756445368 2.576272927229899e-20)
(0.7441747529287959 -0.001790914682652891 0)
(0.5290881898405967 0.1522473310865387 -8.543857019437326e-20)
(0.7058361873270595 -0.0025255373294303 0)
(0.6991477697695441 0.01467559561427172 0)
(1.077797772192863 0.003471724409256678 -6.709714856911906e-22)
(0.9906333774414249 0.01446082540923052 0)
(1.280280033395497 0.1230235093111785 2.495759078653491e-19)
(1.012283863332743 -0.02793645642670891 -7.759780506253542e-21)
(1.039034711374559 0.02074144850057954 1.402494380936897e-21)
(1.058384101774411 -0.01215818774701383 0)
(1.126397863322992 -0.009254408507828661 -4.992455025765888e-20)
(1.255443901492494 0.1299900021271726 -2.165632746741243e-19)
(1.088864219583304 -0.01108860054977609 -8.468576038489914e-20)
(1.070319629846749 0.02515996150886143 -1.094189808720977e-19)
(1.040933307916942 0.04673544977371819 7.004052658424191e-20)
(1.022292067240783 -0.003579811031634435 -3.441894403964219e-20)
(1.061418485605218 0.02359671404909256 6.007804943784103e-21)
(1.13330684509967 -0.004765655508898938 1.078025172306867e-20)
(1.041323871762402 -0.01318503667550343 -4.684667742764847e-22)
(1.087802782962301 0.03483941362345687 0)
(1.028662037514965 0.01326038370487737 0)
(0.7842639576018892 -0.06490601656033322 -1.847790652005795e-19)
(1.030214763060955 -0.002060301217147919 -6.824145396233719e-20)
(1.137101058265539 -0.0001279865632110893 -1.318946270330983e-20)
(0.7035419311900872 0.006556367384270908 7.37188197709298e-20)
(1.176033415067769 0.01967546607002659 -1.923858630477122e-19)
(1.126190866384971 -0.003806650122798836 5.799349370886674e-21)
(1.129030826144817 -0.01009140149578088 3.448476648897439e-20)
(1.000940265298502 -0.002975567324440125 -7.354741875462144e-20)
(1.094004017243954 -0.06442050509464846 0)
(0.9853687992818324 -0.001343840009776004 0)
(1.058021429384594 0.007071523789322643 0)
(1.005874246163219 0.1891218214574643 -2.4405644206384e-19)
(0.7795258506859082 0.01241416541428247 0)
(0.8569313471354899 0.1025613177502938 -8.375794099939971e-20)
(0.09472448172149724 0.04081939666263954 -3.072127363001533e-19)
(1.173498120737979 -0.03138238542747409 -2.238498085590466e-20)
(0.6712785633081871 -0.007353299584577769 2.436325438485605e-20)
(1.166192218453101 -0.1065261369273753 6.997989159274474e-20)
(1.127365697704714 -0.00358826653436986 -6.169935630395301e-21)
(1.155632294209845 -0.05016673021037225 2.175280543703273e-20)
(0.08780765276831555 -0.1967967982167173 0)
(0.2689502185627194 0.08020065769511429 0)
(1.252117208697649 0.1094849979996478 1.897835141395247e-19)
(1.021621594338296 0.01986514623077755 0)
(0.7375981111131703 -0.006336694447456077 0)
(1.075030951446795 -0.0118789156367563 2.691125182609862e-20)
(0.9752453575163176 0.002817602417288464 0)
(1.285711443653814 0.1264807537192451 -1.495407159856622e-19)
(1.057444640535447 0.01122198032803185 0)
(0.9927774082208737 -0.008288843764179887 0)
(1.065264565105323 0.008025860438015854 0)
(1.00620812917566 0.02085126387146175 1.876912870473537e-20)
(0.9229877294193932 0.005726260264868385 1.162664595368031e-20)
(1.175827661406775 -0.1989851528691782 0)
(1.005040430630077 -0.005227658400715567 7.792329159623378e-20)
(1.059207148292414 0.006184479845526765 0)
(0.774584112086853 -0.003346707617457167 0)
(1.215349068129004 0.02773503800641738 1.654682728738591e-20)
(0.7051072122176015 0.001321362426136199 0)
(1.432992822003288 0.08880279392525886 -5.279454751129904e-20)
(0.9935189744023781 -0.006509535099305192 1.670064384378009e-20)
(1.275695079136998 -0.002314832869015143 -2.942907666359461e-19)
(1.059996248200701 0.008750271780485635 1.375929472619594e-19)
(1.000897604172629 -0.01360349536845526 0)
(1.217192305315164 -0.1546413669394349 2.03326597175423e-19)
(0.7331775332045 0.01379219924308369 0)
(1.098031107806534 -0.005131013825479818 0)
(1.152477595387937 0.06501904033756138 1.990458648186045e-20)
(1.006714612165385 -0.00734855041132082 -3.018808171094284e-20)
(1.120679355334899 0.0498572487487178 -1.740637696724304e-19)
(0.1453393224032817 -0.08504614952585826 0)
(1.073119171043965 0.03686076056910561 0)
(0.6615177914969282 -0.002907696876041846 -6.479870631887722e-22)
(1.012087588555235 -0.01965034348587916 9.521992730522459e-20)
(1.061809014962325 0.0006811816356286937 0)
(1.086659947540771 -0.1326030471275588 3.771987291553493e-19)
(1.00252732920381 -0.006193096508758489 -3.449969042066472e-21)
(1.001817091929982 -0.004628202009580155 1.177090223348129e-21)
(1.093992442235894 -0.009253625915894707 0)
(1.020756186898155 0.02027718228022634 -6.358420728839487e-20)
(1.106785685546912 -0.001677999163502611 6.582767027183817e-22)
(1.073753501431536 -0.01093658990358356 6.532830860679763e-20)
(1.085755261352931 0.02236450058603118 0)
(1.327359720500719 0.1642261276525014 0)
(1.002045133894446 0.0003021690052154697 4.414331534171761e-20)
(1.323894446078288 -0.1282407890257249 1.554678084305387e-19)
(0.03581887719718999 -0.1540451222985606 -2.498852067665387e-19)
(1.071301977625576 -0.005567382274051035 0)
(1.117057908892893 0.001987160170583578 1.228344990781449e-20)
(0.7269752961226732 0.01787422262229217 0)
(1.061718986991442 0.002598763116605586 0)
(0.8685526381376854 0.1659696891217055 4.755029664894433e-19)
(1.271709933912245 0.1216990360287519 1.824446845851181e-19)
(0.6541719728071734 -0.00311582037204624 -6.309036456819341e-20)
(1.042366396102933 -0.004784728815719018 -4.029381383906623e-21)
(1.054939527179792 -0.0002747375311273001 6.60701501456155e-20)
(1.35973183943202 0.1238593242210301 6.746292512474199e-19)
(1.336764314911009 0.2530088174971801 0)
(1.058366972319408 0.003465483746362415 0)
(0.9955060083509616 -0.006920092343270768 1.481401500188016e-20)
(0.994731898202546 -0.01029912709039589 2.651612946433744e-21)
(1.38473546449652 0.2004634091246835 4.268144463339717e-19)
(0.6816660260630643 0.0006499914524526189 9.83412531500139e-20)
(1.005634407425567 -0.002027428001650023 -5.962254533808771e-20)
(1.097988688599486 0.01304102027604279 2.540087622348763e-20)
(0.6694683558063047 0.005008761447196521 0)
(1.06608394654898 -0.01202690952684788 0)
(0.9885239978520587 0.1284886594740112 -1.218671525952893e-19)
(1.082663376090873 6.23674740284857e-05 -2.462789083366925e-20)
(0.9820122022598011 -3.410442286104272e-05 3.284282422036265e-20)
(0.9912103777167917 0.00601147180999127 0)
(0.6382768076749049 -0.001153539997357207 0)
(0.9768911874413487 -0.001267026656822114 0)
(0.642010111718551 -0.001487194345842538 2.724616310521257e-21)
(1.088469231096045 -0.0577158021637691 1.204582709825956e-19)
(1.111413090960015 -0.001296102177598797 1.237889403047232e-21)
(0.9580559329700321 -0.0009210429876308282 3.912843112589147e-20)
(1.015775585903193 0.01070506362260884 1.664612040692912e-20)
(1.064211635984715 0.007368000860595274 -2.184819959884969e-21)
(0.6347849073106762 0.00884745138201657 -3.646160623588665e-20)
(1.001701248068135 0.01190821322721269 -8.211103536961272e-22)
(1.035464787440857 0.01253380526836513 4.992764005889178e-21)
(0.9881120003888929 -0.008209003603056462 0)
(0.6100807450764463 -0.0004822979042246401 0)
(1.068743644228874 0.02276200277878241 0)
(1.016063044038298 -0.01554850473758961 1.060063390305172e-20)
(1.021891541819967 -0.002862838272449838 0)
(0.9919908644930612 0.01514701098178888 -9.30303304775362e-21)
(1.012242591782464 0.005971702455305978 0)
(1.12829025748612 -0.006091430263888937 -1.246024611456466e-20)
(0.03545065023800339 -0.1383101600425363 -4.57581806361877e-20)
(1.036291957341192 -0.01561132144902282 -7.666527585874822e-22)
(1.045309542106334 0.00791690211369335 0)
(1.08658506792397 0.06491350801252332 8.395571136705224e-20)
(0.9698251352379985 -0.001272728917485849 3.118685750585186e-20)
(1.020627962265171 0.01716388121566297 -2.346010749407907e-20)
(1.004726312547995 0.001843037213205937 2.466460509181065e-20)
(1.040899742447141 -0.004677558967144556 0)
(0.6409693996827834 -0.004009280443535353 0)
(1.025932548402403 0.02449382713676039 -7.458791483786867e-20)
(1.078917504104218 0.004275128898255795 4.843397073008546e-20)
(1.01423902190828 0.002320324673434747 0)
(0.9810226403864263 -0.002631266757380495 -1.913882381324417e-21)
(0.8735855442477751 0.02495890641377861 -1.415082801986927e-20)
(1.013972606131108 0.003025980583015423 -1.016145271250105e-20)
(1.027559908883093 0.0001122397859017869 1.770745706575976e-20)
(0.9785146990711634 4.800877349651199e-05 0)
(1.004106254938989 0.008628123306469334 3.439741280598841e-20)
(1.106235627052278 -0.004945706500998196 0)
(0.9282083690262369 0.0004344929133359313 -3.440363934239172e-20)
(0.9600049451454994 0.008803165455673926 0)
(0.9122499025628389 0.2099007528839526 5.166404590166088e-20)
(1.010979015304403 0.06721638514578608 0)
(0.9920420986396491 0.003637772401922164 -2.310618842881232e-20)
(1.053124213851845 -0.05251992259646963 -2.764254308815177e-20)
(0.9914780541211493 -0.001281446804600387 3.415615709451166e-20)
(1.010952635814832 0.001993168094097165 0)
(0.9791962864246665 -0.0008793247082270262 -3.187732881327383e-20)
(1.171606716474254 0.09577536567342751 -3.314112388391268e-19)
(1.06841147409355 -0.2636362364338134 0)
(0.9943120384457939 0.0021211735774821 -2.194976162408889e-20)
(0.9823569875708176 0.009376156464905229 4.97000511550903e-21)
(0.9597401542077654 0.002264716450191486 1.057432099528871e-21)
(0.7459982048274751 -0.001095910934949136 0)
(1.114149847148341 -0.07831634222977731 0)
(1.008109986570906 0.001986325931707628 -2.139262075587074e-20)
(0.8974363075151109 -0.001786471643982387 -1.035202740476798e-20)
(0.8527944592362233 0.01769750238270311 5.591569321232005e-21)
(1.010773602816671 0.005643659165681362 0)
(0.9508057222207501 0.00289497889733084 1.57756142465654e-20)
(1.005806927605898 -0.0002374889214871132 -2.298333957898959e-20)
(1.021862827675702 0.002322160700392949 -2.551695677624474e-20)
(1.111365825128645 -0.005142671224444078 -4.909839429009491e-21)
(1.115541496065183 -0.002262938278398859 0)
(1.012612393939788 -0.0002603390803086388 0)
(1.024250120816242 0.002158726567300232 0)
(0.949787562548199 0.007443294471721248 -2.18545665099103e-20)
(1.01788302697639 0.0132599310167036 5.405472853508528e-20)
(1.07966836178533 0.007510148424581133 -2.234013383006771e-20)
(1.037436547665391 0.00535237892230668 0)
(1.106325859912004 -0.006700296025033444 1.81452348413554e-21)
(0.9963379315868846 0.001910635272677137 -2.206282598033253e-20)
(0.9836278035789816 0.005431558789527302 0)
(1.011817072702637 0.00221658672062801 4.678596802517805e-20)
(1.364536152943189 -0.3138109551825414 -1.128355398044123e-18)
(1.122244353883974 -0.04546116675019891 -1.090855694443203e-19)
(0.9727630755135631 0.007180182338874057 4.895057804140924e-20)
(0.7833640239137356 0.0237279730898943 -3.304260711704264e-20)
(1.220256953043966 0.05112468190920337 0)
(1.218674409171791 -0.1379918399373506 -1.468706402435357e-19)
(1.08048655850359 0.006096620410602995 0)
(1.009403204568692 0.001684772931716861 2.218835003969776e-20)
(-0.1662857584786524 -0.07979110644445257 0)
(0.9939705475415677 -0.004663280246301558 0)
(1.012404505865113 -0.02314186022863948 4.351907448218993e-20)
(0.7061016101162472 -0.01942309481048122 0)
(1.096802061534263 -0.01500043096141582 2.231335434519243e-21)
(1.042237932847204 -0.005408696845751554 1.556084834770219e-20)
(0.6331072142507427 0.004177760169950629 0)
(1.446561087270822 -0.1224388164739744 0)
(0.9867797298036367 0.001806406795102731 -1.084595845030204e-20)
(1.06967842173759 -0.01493956172243866 0)
(1.038108633841539 0.0005100051223522683 2.150974009542252e-20)
(1.086800682486455 0.0002527800964637936 0)
(1.008562647743715 0.001917360127328758 -1.131462423869395e-21)
(1.006175719590852 0.003040054568654763 0)
(1.014353908082995 -0.01290741929718531 4.230676265899682e-22)
(1.003132701546004 -0.02032874659071856 0)
(1.033469518897613 0.004651487228426285 1.81174424582741e-20)
(-0.2093232302993388 0.04848331776252394 2.692245692192299e-19)
(0.8214470498161814 0.03765610868814254 5.481074310760177e-20)
(1.005513007798168 0.002251390190994388 0)
(1.129446032833186 0.02531081959500295 -1.283320742987016e-20)
(1.11644183566425 0.01838495987441851 9.10884686580207e-21)
(1.053939557540711 -0.01312234968996298 -1.287493713157404e-19)
(0.9987823484380761 0.0103661489055067 8.144600992055818e-22)
(1.081270638368161 0.004049034322813169 0)
(1.185315749239266 0.05125617819169426 0)
(0.8352632156844877 -0.0746473967605904 4.597611997727215e-19)
(1.101545586394393 -0.0143320906016687 0)
(1.032424777910649 0.007772211944218678 -7.48641936490901e-21)
(1.042756052980699 0.005276110601696776 6.05050409342698e-21)
(1.051320607482692 -0.0613234818837394 -7.48385039344327e-21)
(1.140271014991205 -0.001856414932578519 1.680332065002772e-19)
(1.078869862011705 -0.004568504036255154 0)
(0.9952254297277464 0.00141487863771618 0)
(0.9968102133120245 -0.02386388602351561 -2.257669137972175e-21)
(0.991481529062464 0.002628283231915649 0)
(1.029084020275732 -0.03812864859686991 6.384820810031424e-20)
(1.294649328144521 -0.09518790455328989 0)
(1.047578441841306 -0.01563523776867402 -5.889201974350839e-22)
(0.9861587229903073 0.01685897894863263 -8.636562846220562e-20)
(1.035386610771296 0.04129457484038909 -2.400819895421502e-21)
(-0.09219197875639946 0.1715986886953926 -1.642913082053079e-19)
(-0.06258432900879837 -0.2881345465874258 -1.399117118394601e-19)
(0.8615543017589813 0.1223494738830817 0)
(0.2904703870243882 -0.003981056920449547 -3.05762869148515e-19)
(1.013087823687603 -0.01787829680546509 -1.493287726116134e-20)
(1.06395472162872 0.002615924401462738 -2.108806367719305e-20)
(0.9932679119741025 -0.01924266977285541 2.872724113712632e-20)
(1.023063574930796 -0.02688569507741475 2.493738614967482e-21)
(1.008301520124759 -0.03142045153404119 -6.562382821816292e-20)
(0.9886951267153283 0.004877495271090486 -3.47397044166316e-20)
(0.9934396338317014 0.004270432677840152 0)
(1.024893689874297 -0.001823509768892071 -3.592512617593505e-21)
(1.934378695418893 -0.1552808705212305 1.073980651577464e-18)
(1.051897944284235 -0.01535819157957839 0)
(0.9957418739472125 0.007412276717198014 1.535775159122203e-20)
(1.002833113414164 -0.0001892215751915339 4.078739286251405e-20)
(1.174148688071496 0.1342735171455293 0)
(1.00307380876795 -0.01041312923263933 -2.574652787968552e-22)
(0.9503498140660245 -0.002701181147599179 0)
(1.037846093340781 0.04173684299766157 0)
(1.296156867623705 0.1614832638280744 2.233441877154993e-19)
(1.083712867696143 -0.01135191067303289 2.260091527843399e-20)
(1.018407907100346 0.03208224525252041 4.696077506474235e-20)
(1.082878701443704 -0.009353972146828496 -2.180456414883887e-20)
(1.051778657701586 -0.008782504942558684 6.243899233568228e-22)
(-0.384138082525278 -0.03775048962263941 0)
(0.9980352820320173 0.01395277868756039 0)
(0.1146091931423218 0.0596856755689066 -8.596961214185774e-20)
(1.006126417720101 0.02290501212013861 -4.146117503009266e-20)
(0.9945148805787403 -0.002844144657619219 0)
(1.00034428580113 0.005838042352823721 -5.059948416678274e-21)
(1.081516510858843 -0.04211301716395616 0)
(0.9959149529371627 -0.01790260956054233 -7.722017366013341e-21)
(1.089871329826472 -0.05037760717443738 0)
(1.441375158866251 0.1774406445793174 0)
(1.054120844740165 -0.01177631096517761 0)
(0.9911645939785966 -0.02247942771183363 -3.861908324685116e-20)
(0.9824297926710696 -0.03549891415388214 -2.223215685638713e-21)
(1.019403326211645 -0.01729066431731402 -1.761460739348722e-20)
(0.9975545809022479 0.01712823055733326 -5.620805215723013e-20)
(0.9950376206857321 0.009978361934341911 -1.496716586620867e-20)
(0.9937459308169404 -0.02655780096545123 0)
(1.002850661730539 0.02568608666688179 1.958952347084158e-20)
(1.040797878554846 -0.03782444196093081 0)
(1.110607173411347 -0.03593730154281105 2.603576615419825e-19)
(0.9953446958017839 0.01734149857869802 4.649532359547474e-20)
(0.6151191481190993 -0.008669091438953622 0)
(1.140819225670721 0.1332200177912412 -4.36908204497113e-21)
(0.8468526917063052 -0.103764215674073 0)
(1.138868306834689 0.07306794324928791 -2.711044788729509e-19)
(1.314541197042219 -0.387721425473219 1.291127678508879e-19)
(1.076203286760357 0.06216713166774897 -1.338147548191153e-20)
(1.00945234147807 -0.03011618905469086 0)
(0.9552350568186052 -0.2146084723216835 0)
(0.5082610999048744 0.1461185112520027 0)
(1.012208181450637 0.01126212095600234 1.141462429252517e-21)
(0.699635232674405 -0.02067304105283741 0)
(0.9982886022100175 0.01813394401244008 3.569289783115102e-20)
(1.021090549175108 -0.002388891702475112 -2.739146238221685e-20)
(1.079172761742479 -0.008061679052239484 2.783386642423055e-21)
(1.039644090052182 -0.005898491196772159 3.27389175891773e-20)
(1.042650881297417 0.01092184065563153 0)
(1.057690154584582 0.02996037405313886 -1.020854656658977e-20)
(1.051096075769796 0.03436372715716163 -1.817117861146055e-20)
(0.9826567750385877 -0.02181998878831416 0)
(0.6249368908594241 0.005135435822773709 9.184565533828233e-20)
(0.8941730950611644 -0.00588162592800504 -8.859598522539326e-20)
(0.9093611270686536 0.005321287203811742 1.441783415193894e-20)
(0.6295718013586827 -0.006381081289316693 1.406165577932916e-20)
(0.9782432541575908 0.000443989269586832 2.635268504105649e-20)
(1.004453777472248 -0.01758986215157582 -3.515744730257274e-20)
(0.9661930273337465 -0.01379732843912613 -3.519618208326959e-20)
(1.085507120752674 0.001467784728475203 0)
(1.019161236875462 0.004397293986622241 1.071483751017675e-20)
(1.133085423789848 0.04860295989035302 1.310559285634052e-19)
(1.03428613004463 0.04154205125211165 0)
(1.022115367766128 0.002595373540998272 0)
(1.58251977443065 -0.1666720706148789 4.400855427921114e-19)
(1.039748032535789 -0.03121411309633601 0)
(1.020076936964874 0.006542550891286944 -3.731442092884873e-20)
(1.088970222228416 -0.004390330243212717 0)
(0.4804959661833474 -0.0313138655556871 0)
(-0.03923682413044142 0.01234778937246666 0)
(0.9899693918173355 -0.02398966681221487 1.218652659121324e-20)
(1.300083554965295 -0.09525984058722062 3.738391159564322e-19)
(1.035263756610094 0.03892949589900821 0)
(1.022476864818797 0.003304052190531277 -2.246467936494999e-20)
(0.9559165439671529 -0.1650607757517286 1.890572178361058e-21)
(1.252314917903518 0.07647908846774656 0)
(0.598557438499338 0.7317598970311915 0)
(1.309060298712033 0.1503513336605674 1.108407433958907e-19)
(1.675878630565065 -0.0247130533361154 0)
(1.064883032739418 0.1131618471354834 0)
(0.7208574691823347 -0.008931883798015679 2.605284487303386e-21)
(1.052736616234137 0.04774636390292818 0)
(0.7162487493840841 0.1014600147578762 1.189819951486067e-19)
(0.9967934350664668 -0.01642164732336467 3.574660447734069e-19)
(1.033282969197807 -0.04026637915770942 2.673895237744782e-20)
(-0.3744821186321239 -0.01480023194095215 0)
(1.071574585550409 -0.01630126892764844 0)
(1.09630108816527 -0.01339169241374033 0)
(0.6476983902361978 -0.5013955894504086 -2.490258921420205e-19)
(0.9922215999030806 -0.0009246810021025559 0)
(1.09179949842955 -0.02176842504612319 4.590599555648037e-22)
(1.18861895207411 0.1214020634723713 -2.00269124275071e-19)
(1.089383467818178 -0.0394642025606604 0)
(1.005059079964587 -0.02126003618104891 0)
(0.815320545824275 -0.1888232982633647 -1.739068534489678e-19)
(0.8995041714315748 -0.1351069575923565 1.547243628859848e-19)
(1.027976326868249 0.01076298149484512 -2.228703163200192e-20)
(1.023116495269156 -0.009218725000138952 -4.523612891597222e-20)
(0.8706716857554883 0.006690909437345556 -3.494333111187609e-22)
(1.503998160674244 -0.1930419750825877 0)
(1.301134105401831 0.1186222213512103 3.187434572933084e-20)
(1.24533408025269 -0.07723724222053696 -3.00181705368473e-21)
(1.095862601104765 -0.01861206556192121 -3.844985451570382e-20)
(1.0437354960709 -0.01377315787418471 2.523167764947213e-20)
(1.092813727359922 -0.03915887204312875 9.176235722336377e-20)
(1.032423389620863 0.01960278608807359 0)
(1.045124815913556 -0.03298885623056806 0)
(1.115881134086457 -0.009025191782101408 0)
(1.088910045596459 -0.02585298948109357 0)
(0.997882747598827 0.01098096928325022 0)
(1.150054050741387 0.07542944729538809 9.429585302264568e-20)
(1.343573086790438 -0.1516076016757991 0)
(1.039849110273869 -0.02096068446961787 -1.838080740421043e-22)
(1.053729912931248 0.05237240927882644 0)
(1.009990489077763 0.01463885096597199 -3.958449221913488e-20)
(1.033708614590717 -0.008102688296776591 9.12134027071285e-21)
(1.088975687455527 0.01333858148365201 -3.243967015019036e-20)
(1.084902415550835 -0.02961191484279613 0)
(1.076223186715336 -0.003305553514147685 0)
(1.10607884513254 0.09436703082913225 -1.421489925179057e-18)
(0.9351799267789718 -0.1489000861851512 -7.079842532311859e-20)
(1.173567171374824 0.1046581994521432 1.101124243960066e-19)
(-0.4763909188012959 0.006510580417936091 -2.925100513135314e-19)
(1.019498174258877 0.02889689051416215 -8.821925120241598e-20)
(1.004946541649272 -0.004583453591992933 0)
(-0.2913037675775341 0.04034152884320668 3.557786785811635e-19)
(-0.05413811142469745 0.3257617595581923 7.327538675052593e-21)
(0.9952282850292115 -0.00631314710245657 9.601435834399054e-20)
(0.1903280596524998 -0.03920703805063161 1.430381367758683e-19)
(1.097110301050654 0.0834733587427532 1.521417795539464e-20)
(0.0938851573299115 -0.1079832578711437 -5.448841576547675e-20)
(1.107863044611174 0.003099374692371925 0)
(1.100967885370206 0.257205481786462 0)
(1.021787826127886 0.02195393329168148 -1.72777733913314e-20)
(1.074186749427308 0.05813999975607684 0)
(1.025438396273346 0.02718902045944342 -9.625381713916494e-21)
(1.261830502722748 -0.5481079614526168 8.030541806213765e-19)
(-0.09188856070027414 -0.1978151163999601 2.186341260186959e-19)
(1.295375660454505 0.116422277598649 -6.285846869963978e-19)
(1.123681014599996 -0.001417782273854146 0)
(1.132784926184069 0.09650331917242407 0)
(0.5271756100355991 0.08240121857200744 2.548719624039337e-19)
(1.02319116633845 -0.02111499541547255 9.345848567901902e-20)
(1.005507490422984 -0.02393739039265865 0)
(1.212276630272778 0.2714945750454204 -9.619924462622832e-20)
(1.254669573948185 0.137725257226579 -1.585823210235323e-19)
(1.026595362516663 0.002785231401300272 1.540844288035698e-20)
(1.299205423544072 -0.08452569625471169 -5.008220545447382e-19)
(0.2972814810483999 -0.01562629366946548 2.625071739168332e-19)
(0.8287408653874877 -0.1464347172037155 6.698003072053991e-19)
(1.057451279774795 0.0639879983085254 1.051945409544969e-19)
(1.041273439707491 -0.008114038416697373 1.527673318147509e-21)
(1.001318000026653 0.02011639489567899 2.976241180336885e-20)