/*--------------------------------*- C++ -*----------------------------------*\
| =========                 |                                                 |
| \\      /  F ield         | OpenFOAM: The Open Source CFD Toolbox           |
|  \\    /   O peration     | Version:  2412                                  |
|   \\  /    A nd           | Website:  www.openfoam.com                      |
|    \\/     M anipulation  |                                                 |
\*---------------------------------------------------------------------------*/
FoamFile
{
    version     2.0;
    format      ascii;
    arch        "LSB;label=32;scalar=64";
    class       volScalarField;
    location    "1283";
    object      p;
}
// * * * * * * * * * * * * * * * * * * * * * * * * * * * * * * * * * * * * * //

dimensions      [0 2 -2 0 0 0 0];

internalField   nonuniform List<scalar> 
808
(
-0.03304823285660469
0.04392852991240242
-0.01144869159252685
0.03792798146370729
-0.2953139499422536
-0.05554946513876275
-0.01551929284270809
-0.0239923198476699
-0.1940667277441457
-0.0824197132955921
-0.01016088746733119
-0.2508010398596289
-0.03068810880609204
-0.01396964899750713
-0.124939487067883
-0.01417880207575496
-0.1422811362476727
-0.0137297864120806
-0.01300037025465998
-0.05458370904940536
-0.007730433693080666
0.1164974479062128
-0.0634772925626058
-0.07028492228551457
0.1740540527316332
-0.1003086955090759
-0.150098151658232
-0.02047353248662405
-0.01764211792524765
-0.02571372460800659
-0.02037200300702458
-0.05728670119379069
-0.02285051410480004
-0.01697709121259356
-0.09787114917042472
0.3451824555479262
-0.03988151017035634
-0.01659748007528511
-0.02247903354725259
-0.02651646098148371
-0.0887589782379133
-0.124524081324298
-0.05278289325931994
-0.02127848422167117
-0.05552857846993407
-0.04257846112208943
-0.01199694439293265
-0.1816727628847152
-0.02648932102895502
-0.2011487070904253
-0.01699497157731978
-0.06582884836945033
-0.06176625510246838
-0.01519478752362743
-0.1959255748879208
-0.02775561556633319
-0.0109536022302733
-0.01548439440259943
-0.0985846928272114
-0.03900517398924386
-0.1052787110188876
-0.1238453186106876
-0.01440458835504935
-0.1262499260962346
-0.01740166779537734
-0.05256994773154091
-0.1603577445822319
-0.03544002538232668
-0.01542545937692042
-0.4359779890803578
-0.02616076231856209
-0.297856736978438
-0.02131784893631825
-0.02090855934605589
-0.06227426542996747
-0.01816499815631671
-0.04171489358085963
-0.3678443618873241
-0.03641659595798902
0.03821612962958665
-0.09264609315205009
-0.01679930332300317
0.05721503777004179
0.04630797076125685
-0.01748161250881833
-0.05129573737595101
-0.5366653600543259
-0.2292947449723526
-0.0511127606003613
-0.1138926203885118
-0.0553691985679832
-0.1303734378622125
0.03809195838484385
-0.02672646325857566
-0.06288016090175341
-0.1162929417216811
-0.0382580974680834
-0.05249657739205873
-0.1141163881657161
-0.1358914733527231
-0.05300130628528086
-0.04647430393780388
-0.05333884214158073
-0.04397269629035692
-0.05678478437788798
-0.07564847742124559
-0.04085692149106507
-0.01098352984378717
-0.03959438577417385
-0.1217130901819326
-0.04965367810704738
0.08099391456141655
-0.04175901395672451
-0.00805231531061905
-0.02760249059976772
0.1810835974883538
-0.03792752069646758
-0.264854850892182
-0.02069866836849469
-0.05242534590843561
-0.03651351000186893
-0.04956533412948247
0.01424482982207924
-0.04743685380226525
-0.03686549759140897
-0.2205659232008781
-0.03972305325094908
-0.004573271746903625
-0.07429377737509789
-0.06988941031410552
-0.1431804326164015
-0.02109407706577014
-0.07391702954759397
-0.04448359671879106
-0.02301053742871442
-0.01480736263082546
-0.006185218265560361
-0.007346765930089019
-0.05174781829709683
-0.04873119132402003
-0.2196694253597722
-0.05518766251372756
-0.008209501411613267
-0.02182256548968823
-0.149435696380804
-0.002670062342809194
-0.07497630477655794
-0.02061999639996922
-0.0004581118347701032
-0.01104713857964267
-0.032813236303362
0.09279529158654867
-0.03772532941665049
0.2513194100222776
-0.2673217367770933
-0.1341727436721107
-0.03793676786823772
-0.09096330585336791
-0.009339989847787817
-0.1149966705183783
-0.1714663631466797
-0.2201363491045576
-0.1743782880270681
0.05718889330722868
-0.06397137448409415
-0.02061205390910806
-0.06598107341669059
-0.1646831124574791
-0.0229870845933498
-0.01852297112975668
-0.05079308150130021
-0.02102278732779515
-0.00740853328825083
-0.1052997128819791
-0.02348384273010412
-0.04382678867482311
-0.07120788648035946
-0.1585476543909814
-0.03304586973394256
-0.3843090838448111
-0.01796574610779448
-0.2282470964228962
-0.04327535801471232
0.0334014182530774
-0.1069583722655064
-0.01675271562628133
-0.04338601363091554
-0.1031562601115037
-0.01782175827053182
-0.09421038108522306
-0.207253769994195
-0.07068178130826178
-0.02409224517002768
-0.04672682712701198
-0.04180834872948112
-0.2039232471173229
-0.02235262948034226
-0.01929834481195177
-0.01124056652931745
-0.0576152963904891
-0.04944755909118927
-0.02253610465507526
-0.02068288296939549
-0.2353210644690434
0.1266845631677241
-0.2079792041523738
-0.1886077590421329
-0.01175639817109102
-0.01123593666885332
-0.06642895941280995
-0.0104966397390249
-0.4950885062537209
-0.1213941906250479
-0.01954288411068871
0.0001360712474180629
-0.02367337472842944
-0.276792191819984
-0.2811242026685389
-0.007255856339102089
-0.01725437354445511
-0.001100004098226844
-0.3522858098640759
-0.02852466075437336
-0.02932521486945779
-0.01260477469759085
-0.01947965000241637
0.04838253344585228
-0.1163517187154319
-0.01443687457265973
-0.02093294507521407
-0.04569802332002366
-0.01836473833663076
-0.01633358444682698
-0.0235459886835481
-0.06824919124270071
-0.01110162722048107
-0.01895185574902572
-0.008792396017261894
-0.0009015279580793333
-0.02938441007746788
-0.001987926027147576
-0.002018241662538198
-0.005674795405332275
-0.02553853949698922
-0.007995202734273702
0.001484035439103159
-0.004275158037100288
0.001430737767277928
0.002462864411709799
-0.009008130970606657
-0.1345116118963769
-0.00292378917654802
-0.00102470381040232
-0.04773272267443524
-0.02153783180754866
-0.02367388832951431
-0.01421222418975923
-0.006233862947179231
-0.02106420455254094
-0.04047969704360472
-0.01468017178643295
-0.01287075184061482
-0.01125125527301377
0.008778911430103835
-0.009870923794176392
-0.01229550017886663
-0.01157400803302411
-0.01025665848993806
-0.01039689255259621
-0.01201057374096763
-0.01366888032917505
-0.295424350792443
0.0585302616883101
-0.01583976549111386
-0.01477418124919467
-0.01262697944801605
-0.01181195414971502
-0.008515812546265893
-0.0968573542900862
0.0136331881399583
-0.0139050513571502
-0.01372062125294728
-0.01052259928070706
-0.05060171197960105
-0.009668993100254002
-0.01354121481162336
-0.01037027936217509
-0.0007913445459320987
-0.01156122492858435
-0.01217273771235167
-0.02427031644582507
-0.01540656896678191
-0.01208267638435086
-0.01358775691700656
-0.008068622499055086
-0.01213721625117286
-0.01144772702902781
-0.06006564140321112
-0.01364289697417668
-0.01162954162679172
-0.009104206408410205
-0.01524418442775981
-0.01365784274179097
-0.01562120581704308
-1.361557205002714
-0.1008155883144016
-0.01280353060152417
0.02680882730033318
-0.1601748911083756
-0.09185295548503089
-0.01233608972409411
-0.01414900000315291
-0.2301829922504204
-0.02786727867556965
-0.01731195627609166
-0.01228043869846347
-0.02031332517011897
-0.01001234706443009
-0.03082673162871023
-0.4067330439672192
-0.01228777084365933
-0.01409456866734699
-0.004465358007307149
-0.01139279930225384
-0.01073031563327705
-0.01386836474897634
-0.006166642743027482
-0.02715781609588565
-0.0118780987450519
-0.1744490461828132
0.02013055238763426
-0.007274330054688929
0.004452114204270677
0.01308651059250347
-0.04902171559005629
0.02729041724087873
-0.01340768040720892
-0.1314695096856388
0.2830529353822212
-0.007840964224267496
-0.01376730686433383
-0.007953552968925914
-0.03270345217776745
-0.1261774952807635
-0.01234205622440242
-0.0119214807771276
-0.01719745733186879
-0.01346165185494484
-0.04171905835806134
-0.2209749378497725
-0.009201687212386685
-0.0439469104622459
-0.0384622063857394
-0.1792969629468006
-0.1541881873812854
-0.1396842235489482
-0.2206137674877554
-0.003917266394284595
-0.02069021787546476
-0.01478764890396544
-0.01354570595919284
-0.03381342401088736
-0.02456404299004662
-0.01400299984021157
-0.01484572489801926
-1.065921497969276
-0.005107635699225645
-0.01308980015122429
-0.01811604230198468
-0.02473818165021502
0.001152564334411245
-0.01494985026262087
-0.02496391373062183
-0.1469448992478049
-0.0137053602256992
-0.02135736274436249
-0.01441188542927222
-0.001684223409506753
-0.1778029389775184
-0.0124580434171595
-0.1522451868126105
-0.01552574285196508
0.001900075240101732
-0.01420942460160196
-0.02420253021553549
-0.01602211868855393
0.005927555939337536
-0.2669678817059227
-0.02662848365084322
-0.01657663885829227
-0.008796767505530779
-0.01074195581290052
-0.02926475275667918
-0.01378361331988848
-0.02099069595220282
-0.02053552197016346
0.01329312218982626
-0.09701899129459532
-0.0211566501657441
0.009549848332497118
-0.05900089142852479
0.182829037969189
-0.1070008783264857
-0.3141470152603533
-0.03045077991418076
-0.0259420912410271
0.151988180424842
0.08085296021755538
-0.003879197506920019
0.05188879289887694
-0.01498994037919569
-0.01353429619586063
0.002697499839560545
0.007558034483938645
-0.0644369970709415
-0.005202756578332017
-0.05580887416771567
-0.02292318730422938
-0.01571233547015693
-0.03652756018888402
-0.03292346378450475
-0.006681182027012352
-0.01485427851272439
-0.03628023907249744
0.033245024461723
-0.03868799483770675
-0.01405588739284945
-0.120126540358443
-0.03110707144030229
-0.04003427458601194
-0.6661284901421834
0.01798024045570174
-0.01016061918208215
-0.00595690400958685
0.1747425127128644
-0.09737385248052889
-0.03588147994479406
-0.2408816469019236
-0.01559304091790677
-0.01606539305457685
0.08190540625812667
-0.1786651123496984
-0.2363439275480489
-0.1869281607853517
-0.6741921645198041
0.004139889336406584
-0.01779429703848744
-0.0161588371317849
-0.09118709444551966
0.118933233712287
-0.02128845926455234
-0.2290272019822155
-0.03626867559266177
-0.007016885112253611
0.2815276009492541
-0.01093663853592879
-0.09026163592052952
-0.1538604376268373
-0.003512052087316044
-0.04166322437972397
-0.05223255134936041
-0.1975134236162082
-0.007727030497826583
-0.03938478398133621
-0.003002555159856141
-0.5416505466202348
-0.1913252860466981
-0.1797661094093556
-0.02347890977819726
-0.008834022468461432
-0.06242618569805164
-0.05613706337722991
-0.01428636958675188
-0.0699011910524994
0.005232752522123122
-0.01760982089790719
-0.09329328053059127
-0.2778686215574434
-0.008620485996707648
-0.0252416394485351
-0.02131169386693493
-0.07668204224972225
-0.08847588614490541
-0.09009856661105481
-0.01191576363402016
-0.9070135181569042
0.1627632376271214
-0.08047608644220018
-0.2478273669838726
-0.04114723614427851
-0.009542716196363854
-0.2542809604365151
-0.2003408083560442
-0.03035292182145666
-0.1194671379408138
-0.0192434473593881
0.5638233113930824
-0.02521046368264739
-0.2162797516441823
-0.02491994787045602
-0.004749772229898235
-0.01118625856469902
-1.239431182703895
-0.1793280345538988
-0.2251826393246621
0.005190014532746536
-0.03954108674041441
-0.2394508918687202
-0.06737107762383811
-0.05232114742027551
-0.147517333290164
-0.1775793609741049
-0.07031399624495227
-1.211221185855601
-0.1554709337270016
-0.5418962927583747
0.08035843056012511
-0.005781507430598805
-0.02092277172030228
-0.04505226784888668
-0.03753495828469163
-0.02776474697149663
-0.1280857035139539
0.08197954317212218
-0.002594257052972508
-0.01001596147979402
-0.5630369889022502
-0.8473231522537064
-0.1739654539602483
-0.007910735968145236
-0.1282162959085091
0.0005436815342293222
-0.000142706056598847
-0.002663539439086583
-0.06122463865048153
-0.2320007650640482
-0.01323141079203555
-0.1149089635574922
-0.1584959759358446
-0.01310555967103787
-0.03430337181925586
0.0295146204182246
-0.05899812767513862
-0.07242997985801196
-0.4916451462754544
-0.2078444139693485
-0.07896116231565718
-0.07618919840992128
-0.0193160620557765
-0.1165951283295994
-0.1616127139989714
-0.07975769919398136
0.02411525470907199
-0.08768094456831922
-0.05080791630129065
-0.0148841528376689
-0.1108108814297231
-0.2818499917660619
-0.06000819153822162
-0.01794906415933893
-0.0002004482759516686
-0.01006615008698857
-0.0105382299707964
-0.2338491565134652
-0.0146792530872266
-0.2151322501739775
-0.01039717863090902
-0.0752380793247627
-0.004485965284538724
-0.02328814063501469
-0.3932116194228123
-0.9319771506898081
-0.01127198990720978
-1.035841852488483
-0.600183720412982
-0.0103975600238748
-0.6665002095527786
-0.1891092969957457
-0.005642993269093986
-0.1242537130563246
-0.01676152308758699
-0.1263979519774526
-0.06429846013429236
-0.08256823341710072
-0.005176475263780726
-0.002533779684057006
-1.352292468277387
-0.01156737723855917
-0.1797694977750924
0.001033643205434906
-1.000264678333607
-1.253986914884459
-0.07754070924760104
0.01528453348219627
0.1646799131242229
-0.004558739690175831
-0.02299723571929989
-0.004247708891340166
-0.2404989221956493
0.3653454353140458
-0.04237594973743149
-0.2152590784413851
-0.01513002531985872
-0.6458376087727532
-0.07151056997710417
0.1876336364443722
-0.3018577320260148
-0.05093488972611706
-0.07055560820985726
-0.01588127797650292
-0.02144836383662168
-0.5953268546179
-0.1527011899356255
-0.09291298362342637
-0.1198994607084029
-0.5471133789448849
-0.04548025264666564
-0.8970320407771787
0.0004998198733817249
-0.245061842362777
-1.061014150096981
0.1619868131662383
0.2880336432878317
-0.17705911451
-0.1871029115367052
-0.2185456966136428
-0.06567756678286128
0.02404181670441407
0.04209941705098742
0.003640459294734917
-0.158325600594958
0.02659879026146256
-1.3733285358172
-0.08753741381464085
-0.4817271910224901
-0.3374623488112169
-0.2181449997589217
-0.1818523491827355
-0.01695045193861873
-0.01540231274155603
-0.09761029652454487
0.1759254203579853
0.3838006725083919
-0.1973576922116218
-0.149615554434013
-0.2156229973348278
-0.06384796394361449
-0.1588737690352123
-0.1721200066252371
-0.1282900603170966
-0.1161300847261305
0.4623740503912948
-0.2828909135687885
0.4347564848589059
-0.5877163892125994
0.07394957419125621
-0.1890084949273126
-0.06818370748123144
-0.0788398621856938
-0.8975818359111166
-0.2126554027499759
-0.1945617512873467
-0.3559880953105298
-0.4680033457055212
0.569518321850741
-0.217669457669954
0.003294760856553868
-0.06654005385146297
0.346755173413392
-0.03427063133308285
-0.1271082466153575
-0.1833384464722215
-0.06384300281255895
-0.01639946470587624
-0.2016488690189002
0.1994785561718201
-0.0128067163931144
-0.09914813647788744
-0.1779894965629506
-0.3231351257821103
-0.3065091708306643
-0.07770175933006822
-0.009782112796587489
-0.08320225282037809
-0.6452874219915339
-0.6795709424000274
-0.3258868349303148
-0.0594376631331376
-0.04891035303449952
-0.0244336484670528
-0.07063358120060331
-0.05429876170123416
-0.3691512569306847
-0.9689674631517001
-0.009463043089132485
-0.08577008581154415
-1.151835056836752
-1.048066947160414
-0.1114320662264986
-0.04245279844835399
-0.06732539863913246
0.3871506490235945
-0.337314984701752
-0.04934854300193102
-0.608772280773203
-0.1325878993928023
-0.2468978110885741
-0.2162940172806417
0.4727247300712
-0.6399729840239619
0.07850631825505498
-0.02836388312567068
-0.5721162202382568
-0.05511031785704756
-0.3691624354992001
0.1112452696390939
-0.1944549332208194
-0.06173649121903954
-0.1294481091869646
-0.3545775755812522
-0.08174247160012572
0.516523947335467
0.08763563693224038
0.468500028598207
-0.1090795587025877
-0.2083154257681091
-0.50887421996409
-0.1366746352671218
0.02361728777419422
-0.05596504844215455
0.0982797470409444
-0.299318101055509
0.2365316496185468
0.003618168938651782
-0.002579708458214085
-0.5050781948258751
-0.1803461628844136
-0.08979766576517931
0.5814737534979232
0.1401092982398823
0.3411582218332266
0.2250447761051669
-0.5705606130586668
-0.1928012808865825
-0.2256739158970301
-0.2196811150574846
-0.06261695137103315
-0.6842454101521516
-0.1872644493043574
0.3034298969293392
-0.1887677461124564
-0.01146351659643948
-0.1598235336394489
-0.01231840929560054
-0.1683903617638612
-0.4484478076804976
-0.07577425374036523
-0.2096622548543691
-0.07387428713523503
-0.09873697337299198
-0.1354093241874576
-0.07183298568760062
-0.4409512547974906
-0.4073695064967651
-0.02234799603884686
-0.07841990895730097
0.3316958339631319
-0.2532610476675118
-0.1728508633224907
0.5230355594096315
-0.1958332869722351
0.02247308932606354
-0.4576239342917433
0.05312031742894095
-0.05891502337496509
-0.1410322255727135
-0.5949319692670988
0.1564761935329664
-0.5718292411386279
-0.5438413190461285
-0.1000124462403039
-0.5161266997960232
-0.035964080429705
-0.1503809637141962
-0.4179534614084501
-0.0159919481226751
0.2892113452002267
0.4901195730132534
-0.1670346262533204
-0.004796461642834903
-0.09106378297019703
0.5248820495376755
-0.0320065354645046
-0.4477865832955093
-0.03170059621363085
0.4626025387624517
-0.01795185125532052
-0.5531163035192834
-0.2462874785146783
0.1791754243455803
-0.3170121641096165
-0.1837945928240881
0.04598381611575413
0.03077513157902973
0.05723560741951005
-0.305946606257311
-0.1611497201141457
0.4128313978246083
)
;

boundaryField
{
    FrontBack
    {
        type            empty;
    }
    Top
    {
        type            zeroGradient;
    }
    In
    {
        type            zeroGradient;
    }
    Bottom
    {
        type            zeroGradient;
    }
    Out
    {
        type            fixedValue;
        value           uniform 0;
    }
    circle
    {
        type            zeroGradient;
    }
}


// ************************************************************************* //
