/*--------------------------------*- C++ -*----------------------------------*\
| =========                 |                                                 |
| \\      /  F ield         | OpenFOAM: The Open Source CFD Toolbox           |
|  \\    /   O peration     | Version:  2412                                  |
|   \\  /    A nd           | Website:  www.openfoam.com                      |
|    \\/     M anipulation  |                                                 |
\*---------------------------------------------------------------------------*/
FoamFile
{
    version     2.0;
    format      ascii;
    arch        "LSB;label=32;scalar=64";
    class       surfaceScalarField;
    location    "18.8";
    object      phi;
}
// * * * * * * * * * * * * * * * * * * * * * * * * * * * * * * * * * * * * * //

dimensions      [0 3 -1 0 0 0 0];

oriented        oriented;

internalField   nonuniform List<scalar> 
1171
(
-0.945519
0.945519
0.774837
-1.08432
0.309478
-0.200453
-0.788543
0.988996
0.0544814
-0.0677204
-0.276635
0.344355
-0.774837
0.0859642
0.688873
0.924464
-0.209184
-0.71528
0.826582
-1.04567
0.219087
-0.355006
-0.0382243
0.39323
-0.00174968
0.602247
-0.600497
-0.595553
0.995725
-0.400171
-0.422726
1.0031
-0.176516
0.226786
0.10124
-0.328027
0.971154
0.0319448
0.277452
-0.0506652
1.00408
-0.0329284
0.710486
-0.910939
-0.786384
0.613096
0.173288
0.235579
-0.831133
0.557883
-0.914023
0.35614
-1.08109
0.671518
0.409576
-0.644028
0.642278
0.0320928
-0.251202
0.219109
0.0378281
-0.644362
0.606533
0.466644
-0.504868
-0.840202
0.879843
-0.0396414
0.992933
0.0111491
0.906081
-1.06385
0.157765
1.0144
-0.0214712
-0.697037
-0.0893474
1.25854
-0.852683
-0.405855
0.174202
-0.0748725
-0.41055
0.485423
-0.27397
0.185678
0.0882919
-0.604048
-0.480268
0.972124
-0.0660437
-0.0300607
0.883463
-0.853402
0.50384
0.754698
0.527375
0.0226097
0.444034
-0.789885
-0.106798
0.896683
0.591813
0.238925
-0.830739
0.040405
0.61808
-0.658485
-0.510445
-0.57065
-0.384131
-0.679715
0.026454
0.24644
-0.272894
-0.955481
-0.0366301
0.992111
0.372442
0.020788
0.845037
0.0794266
-0.603329
-0.0406987
0.0360268
-0.825912
0.10704
0.940811
-1.04785
-0.407241
0.0309397
0.376301
-0.718952
-0.236529
-0.748268
0.855308
0.697427
0.298298
-0.577888
1.00313
-0.822036
-0.18109
-0.126793
0.0383898
0.0884031
-0.458791
-0.0460772
-0.318073
1.0155
-0.00599635
0.430155
-0.424159
-0.516783
1.1086
0.714097
-0.820895
0.387677
-0.0678398
-0.319838
0.75877
-0.75877
-0.916955
0.0413722
-0.318007
-0.695726
0.665666
-0.0348879
-0.144983
0.179871
0.884061
-0.000598701
1.05077
-0.811842
0.224113
-0.320844
0.0967315
0.967006
-0.121968
-0.674326
-0.0569643
0.73129
0.149668
-0.231008
0.0813403
0.798386
-1.00757
-0.441049
0.309708
0.131341
0.683991
-0.646163
0.865694
-0.392256
-0.473438
0.481563
-0.694178
0.0359518
0.658226
0.136267
0.669692
0.0412253
-0.710917
0.136992
-0.0956197
-0.511314
0.104073
0.0375397
-0.907556
0.870016
-0.543121
-0.759448
0.0624118
0.498586
-0.054552
0.275368
-0.832922
0.557554
0.424581
0.575419
0.600098
-0.564071
-0.381681
-0.0105481
0.392229
0.530769
0.228001
-0.680629
0.721034
0.0880356
0.88435
0.00706131
-0.681387
-0.764931
0.802471
0.612728
0.119275
0.338794
-0.458069
-0.154394
0.558831
0.0592483
0.856821
-0.870223
0.013402
0.662087
0.341039
-0.432337
0.706683
-0.587408
0.408956
0.148927
-0.0568649
-0.674383
-0.245286
0.919669
-0.119441
-0.639329
-0.613511
0.363185
0.250327
0.663635
-0.656574
0.309467
1.0384
0.0123683
-0.764931
-0.176873
0.0500802
0.714097
0.789221
-0.789221
0.845144
-0.83107
-0.0140736
-0.454061
0.878642
-0.194009
-0.317306
0.763286
-0.670144
-0.0931425
-0.935709
0.261326
0.108458
-0.711787
0.820895
-0.975289
-0.196185
0.174588
0.0215973
0.109121
-0.99683
0.887709
0.542676
-0.0153012
-0.288914
0.595042
-0.306128
-0.651781
0.760902
-0.158401
0.685293
-0.822428
0.137134
1.10745
-0.66108
-0.446374
0.732357
-0.0682911
-0.00774024
0.0059269
0.00181334
-0.800147
-0.815393
0.0268502
-0.695726
0.577299
-0.546359
0.202173
0.619953
-0.822126
0.779005
0.166514
0.490864
0.509136
-0.0947963
-0.696045
0.790841
0.924088
-0.067267
-0.732357
0.802471
0.180869
-0.432071
-0.0179395
0.00198585
0.0159537
0.677866
-0.432579
-0.245286
0.688873
-0.0519511
-0.1301
0.568972
0.108894
-0.0145519
0.00178278
0.0127692
0.00422479
-0.011965
0.144376
-0.212216
-0.947622
0.0415697
-0.145151
-0.0518088
0.138709
0.790524
0.742497
-0.167078
0.53132
-0.329146
-0.163526
0.387638
0.639413
0.0494602
0.228917
-1.05999
-0.975289
0.31789
0.665666
-0.16294
0.0179564
-0.832094
1.01223
-0.180139
0.483576
-0.107275
0.801725
0.305822
0.291667
-0.0142154
-0.680948
0.680948
0.227775
0.668908
-0.018686
0.448841
0.466737
0.0208345
-0.038774
0.546183
-0.00350699
-0.651781
0.57123
0.192056
-0.0053226
0.0112495
-0.639413
0.157961
0.854272
0.0177587
-0.71236
0.694601
0.760926
-0.821781
0.0608549
-0.779005
-0.0362391
0.0504177
-0.0141786
0.0859768
-0.117235
-0.103258
0.220494
-0.00811873
-0.00643322
0.740704
-0.722946
0.953938
0.0350573
-0.340836
-0.579464
0.9203
-0.000970057
0.000970057
0.16404
0.475754
0.529316
-1.00507
-0.192228
-0.549537
0.741765
-0.018627
0.198498
0.38192
-0.232252
1.06857
-0.592817
0.83536
0.974733
-0.445417
0.187912
0.760902
0.584385
0.2332
0.646644
-0.639329
0.319052
0.00442668
-0.00506212
0.000635439
0.908746
0.0901033
-0.998849
-0.551457
0.529986
0.545939
-0.551457
-0.584385
0.529986
0.00336184
1.00534
-0.051397
-0.530769
0.448206
0.082563
0.532121
0.64189
-1.17401
0.500012
0.568559
0.675006
0.507785
-1.18279
0.496046
0.478687
0.448206
-0.512372
-0.512872
-0.63739
-0.545443
-0.202475
-0.0065611
0.0065611
0.594582
0.55119
-1.09663
0.701801
-0.363007
-1.03639
0.375307
-0.698168
0.461639
-0.0524807
-0.902944
0.955424
0.453583
-0.0993929
1.00814
-1.0891
-1.02576
0.140542
0.885214
0.382415
-0.200144
-0.182271
0.747828
-0.813872
1.01254
-0.945507
-0.0670323
-0.0869144
-0.783309
-0.1951
0.858566
-0.663466
-1.07798
0.991062
-0.570674
0.59283
-0.0221564
-0.729203
-0.0272619
0.756465
0.00400269
-0.00497274
0.424295
0.0765651
-0.950213
0.873648
-0.807324
0.712527
1.04313
0.147036
-1.19017
0.0173773
-0.00695463
0.399184
-0.36061
0.0397658
0.906716
-0.959197
-0.694146
-0.83086
0.0475513
-0.137214
-0.94591
0.000402836
0.433539
0.0977803
0.0880856
0.294329
-0.668482
0.64122
0.473438
-1.00234
-0.93094
0.0743952
0.0744653
0.600222
-0.674687
0.00951422
-0.61968
0.579279
0.181646
0.0682602
0.939879
1.1316
0.939064
-0.938661
0.0468134
-0.0468134
-0.0771911
-0.117404
-0.0827395
0.336123
-0.0182333
0.239716
0.949393
0.00139834
-0.00951706
0.657684
0.342316
0.796687
-0.604048
-0.762382
-0.584584
-0.490344
0.490344
-0.207953
-0.110053
0.667517
-0.921286
0.253768
-0.478621
-0.533449
0.33546
-1.01518
-0.938563
0.87153
-0.65205
0.699602
0.665666
0.185204
-0.850871
-0.60674
-0.182878
0.848883
-0.666006
-0.0108306
0.00262111
0.00249648
-0.00511759
-0.0840088
-0.0333955
1.00298
0.682344
-0.327654
-0.35469
0.500074
0.750316
-0.522541
0.0132838
-0.287253
-0.00395429
0.801156
-0.797202
-0.349509
-0.0862897
0.14472
-1.05166
0.0528139
-0.736081
0.0964721
0.734114
-0.830586
-0.867261
0.13118
0.703537
-0.789827
0.23578
-0.353015
-0.558949
-0.0477911
0.368198
0.722824
-0.0161409
-0.000542506
0.000542506
-0.00477831
0.036652
-0.0322253
-0.0159676
0.017366
-0.461169
0.334524
0.780688
-0.81354
0.0328525
-0.674148
0.77062
0.791583
-0.088046
-0.679398
-0.187863
-1.11601
0.0208265
0.0259868
-0.465123
-0.874498
-0.871713
0.465858
-0.128643
0.143242
-0.0145984
-0.304464
-0.160659
0.478671
0.712166
-0.0472504
-0.00455842
1.09945
0.535796
0.178781
-0.714577
-0.331544
0.0270801
-0.00555144
0.00817255
0.702296
-0.947582
0.00514387
-0.00514387
-0.738868
0.753768
-0.0149006
-0.243459
-0.123885
-0.698091
0.187689
0.603152
-0.0548661
-0.880969
-0.373556
0.152268
0.221287
0.735551
-0.702699
0.357129
0.256641
-0.61377
-0.172202
-0.696982
-0.133603
-0.203072
-0.185867
0.469429
-0.515507
0.193814
0.738302
-0.932116
0.481563
-0.151072
0.0224291
0.075535
-0.261402
0.596026
-0.0959174
-0.500109
-0.286013
0.306501
-0.0204881
0.594344
0.107457
0.0946006
-0.3123
0.170212
0.142088
-0.171948
-0.00492563
-0.327483
0.0964126
-0.137278
0.0408657
0.888174
-0.188313
-0.0551458
0.552931
0.307991
-0.635645
0.401127
-0.401127
-0.208231
-0.399437
-0.22518
-0.399437
-0.72431
-0.851451
0.181307
-0.271052
0.731841
0.0496667
0.124356
0.598468
0.110049
0.119534
0.00950492
-0.129039
-0.118784
0.656091
-0.985156
0.405693
-0.0674472
0.0754239
-0.00797675
-0.754052
-0.176286
-0.607306
0.786087
-0.516347
-0.0813024
-0.180099
-0.338071
-0.0801302
0.0801302
0.0489081
0.00150958
0.14036
0.138316
-0.7187
0.111394
-0.0725093
0.472465
0.527535
0.807128
0.0239654
0.0034686
-0.027434
-0.298689
-0.58228
-0.561623
0.114674
-0.119489
0.004815
-0.151174
-0.413223
-0.13298
0.736132
-0.586016
-0.168036
-0.0429125
0.0155119
0.256202
-0.489805
-0.198449
-0.190682
-0.0215338
-0.47407
0.434227
0.0398423
-0.0955817
0.294341
-0.86499
-0.537629
0.617348
-0.87701
0.704808
0.441886
-0.0287344
0.0520049
-0.0232705
0.0679217
-0.636076
-0.00761401
0.64369
-0.893473
0.651233
-0.728425
-0.113626
0.00755532
-0.00755532
-0.299016
0.412787
-0.0136029
0.00889686
0.0150685
0.596587
0.599378
-0.585976
0.0108827
0.00236512
-0.00290763
0.00521003
-0.00521003
-0.482229
0.589686
0.0148974
-0.0148974
-0.778957
-0.00884001
0.0128427
-0.523751
0.635145
0.627718
-0.642618
0.0697967
-0.0697967
-0.0252849
-0.0134891
0.00781586
-1.06434
0.617963
-0.496827
-0.00497274
0.606179
0.00791936
-0.614098
-0.713328
0.127312
-0.314925
-0.0139008
0.328826
-0.0273743
-0.0198761
-0.608925
-0.0271515
0.0259868
0.00559446
-0.000450594
-0.00334154
0.00334154
-0.204251
0.245117
-0.470477
0.135113
0.661574
-0.116109
0.00303899
-0.00303899
0.508417
-0.195476
0.00852538
0.0184315
0.000237291
0.565923
-0.7614
-0.68527
0.630124
-0.0840406
0.330255
0.772075
-0.00477831
-0.0829783
0.0942278
-0.629797
0.5502
-0.317313
-0.107149
-0.0296453
-0.025948
-0.012499
0.46323
-0.0845997
-0.415509
0.70421
0.00135107
0.00406782
-0.00406782
-0.164675
-0.0659349
-0.571297
0.620964
-0.131993
0.510442
-0.189106
0.899592
0.787271
0.00559446
-0.775707
0.657171
0.0612612
-0.0131246
-0.0481366
0.534543
0.0909077
-0.0115279
0.0638484
-0.0523205
0.00818636
-0.00818636
-0.74168
0.0229833
-0.0447408
0.0631723
-0.0857211
0.0857211
0.00236512
-0.00173933
0.74011
0.114162
-0.316649
-0.0965735
-0.519731
0.0183487
-0.0657885
0.0657885
-0.0527189
0.0817853
-0.0817853
0.0255753
-0.0255753
-0.356803
-0.0755336
0.240021
0.0696868
0.0470792
-0.737551
-0.0637062
0.16034
0.0205289
-0.23829
0.0815806
-0.0815806
-0.466806
-0.0487005
0.229763
-0.0106539
0.00225292
-0.662515
0.659153
-0.0209876
-0.0317313
0.0624934
-0.0759824
-0.0119886
-0.157609
0.169598
-0.149783
-0.203232
-0.0805682
0.0805682
0.0545022
-0.0545022
-0.0285539
-0.0938182
0.122372
-0.0351534
-0.189281
-0.00576512
0.00285749
-0.142969
0.388085
-0.025628
0.492176
0.00838014
0.00438901
-0.0498874
0.0498874
-0.736039
0.316303
-0.128392
-0.20759
-0.023418
-0.015799
0.0180519
0.193956
0.0265371
-0.00109858
0.00133588
0.0847214
0.0299524
0.0558683
0.104472
-0.0120211
0.00746268
-0.00107605
0.00534486
0.00566914
0.00262302
-0.00829216
-0.0017027
0.00973121
0.0276388
-0.0276388
0.0480494
-0.0428926
0.0428926
-0.190398
0.00973388
0.0295921
-0.0749039
0.0173889
0.07766
-0.07766
0.233799
-0.233726
0.0839434
-0.0665543
-0.167172
-0.0154913
0.0154913
0.407227
0.250999
-0.520329
-0.0807484
-0.0387404
0.54234
0.02734
-0.0564412
-0.447047
0.102044
-0.152516
0.169112
-0.0165957
-0.0477076
0.0477076
0.874119
-0.591319
-0.00684611
0.00514342
-0.00559086
-0.286339
-0.000204686
0.00515287
-0.0457497
-0.62969
0.568432
-0.673549
0.0147797
0.143469
0.015901
0.0243122
-0.158107
-0.333635
0.258732
-0.0554173
0.0268634
0.171595
0.134906
0.258065
0.262868
-0.246967
0.00521855
-0.114745
-0.221491
0.0675648
-0.0116965
0.158789
-0.134476
-0.068591
0.153312
-0.416908
0.118875
-0.101486
0.0579179
-0.473427
0.174265
0.178426
-0.247017
0.00863262
-0.178302
0.178097
0.00392062
0.149392
-0.0279952
0.0486892
0.459728
0.0121475
0.0156643
-0.00443636
0.0372243
-0.238087
-0.202295
0.591223
0.1684
0.0613632
0.0759311
-0.0635424
0.0322898
-0.0804264
-0.0303888
0.165627
-0.150847
0.00316532
-0.00398863
-0.106056
-0.0289103
0.010628
0.251426
-0.00516085
-0.0436927
-0.310507
-0.0101422
0.218192
0.137974
0.178329
0.0573026
0.0967441
0.0635699
0.533017
-0.00936821
0.104929
0.0420852
0.0667356
-0.108821
-0.26933
-0.195277
0.0281049
-0.222001
0.282403
)
;

boundaryField
{
    FrontBack
    {
        type            empty;
    }
    Top
    {
        type            calculated;
        value           uniform 0;
    }
    In
    {
        type            calculated;
        value           uniform -1;
    }
    Bottom
    {
        type            calculated;
        value           uniform 0;
    }
    Out
    {
        type            calculated;
        value           nonuniform List<scalar> 10(1.17502 1.04449 1.15026 1.0646 1.14967 1.02413 1.14577 1.01207 0.609358 0.624617);
    }
    circle
    {
        type            calculated;
        value           uniform 0;
    }
}


// ************************************************************************* //
