/*--------------------------------*- C++ -*----------------------------------*\
| =========                 |                                                 |
| \\      /  F ield         | OpenFOAM: The Open Source CFD Toolbox           |
|  \\    /   O peration     | Version:  2412                                  |
|   \\  /    A nd           | Website:  www.openfoam.com                      |
|    \\/     M anipulation  |                                                 |
\*---------------------------------------------------------------------------*/
FoamFile
{
    version     2.0;
    format      ascii;
    arch        "LSB;label=32;scalar=64";
    class       volScalarField;
    location    "14";
    object      p;
}
// * * * * * * * * * * * * * * * * * * * * * * * * * * * * * * * * * * * * * //

dimensions      [0 2 -2 0 0 0 0];

internalField   nonuniform List<scalar> 
808
(
0.0942049
-0.00199394
0.0305369
0.0946661
-0.241013
-0.00360267
-0.0146416
0.00955057
-0.144708
-0.0517857
0.0266368
-0.159242
0.00632329
-0.00801704
-0.239782
0.00307377
-0.243514
0.00098291
0.0242357
-0.0158494
0.0324376
0.372918
0.0602684
-0.029311
0.451052
-0.18323
-0.0805104
0.00188508
0.0040952
-0.00134482
0.00195626
-0.00559458
0.0073726
0.00245333
-0.111015
0.615409
-0.00382401
0.0101693
0.00256832
0.004897
-0.0803594
-0.0826066
0.0200039
0.00793085
-0.223753
0.0773518
0.00130873
-0.00891884
-0.00356342
-0.18531
-0.0101179
-0.00909866
0.0301711
0.00281977
-0.0862019
-0.00593255
0.00346836
0.0294264
-0.0464841
-0.0135455
-0.320493
-0.0184276
0.021611
-0.209825
0.0148013
0.0314791
-0.290436
0.00634251
0.0197368
-0.290268
0.00790688
-0.3218
0.00312312
0.000443516
0.167749
0.00119005
-0.0294019
-0.0639231
-0.00821963
0.310221
-0.13704
-0.00280823
0.0178872
0.255494
0.00660274
-0.0513037
-0.364215
-0.104605
0.00488151
-0.186539
0.0154857
-0.125954
0.247838
0.148889
0.0259594
-0.293666
0.000877821
-0.153394
-0.134298
-0.263131
-0.00491288
-0.0215564
0.0166257
-0.0438152
-0.132218
0.0454988
-0.258648
0.00719179
-0.00802806
0.0101178
-0.0940763
0.3283
0.000598445
0.00909569
0.00170698
0.440546
-0.00879556
-0.276877
0.00168828
0.0332064
-0.329833
0.0198423
-0.00586321
0.0329797
0.103388
-0.0503839
0.083286
0.014914
0.00570912
0.0538535
-0.311176
0.0046085
-0.0762873
0.119947
0.00287989
-0.0106493
0.0387314
-0.00219236
0.00209677
-0.0146729
-0.266487
0.0238584
0.0378654
0.00329064
-0.0319507
0.0295406
0.0720834
0.135565
-0.189983
0.00549611
4.35467e-05
0.339646
0.00676036
0.52918
-0.272626
-0.10069
-0.00197516
-0.225958
0.0318655
-0.123276
-0.307443
-0.27046
-0.310552
-0.0027038
0.0461908
0.00707799
-0.00105627
-0.317185
-0.00332654
0.0181633
0.0161104
0.151724
0.0333215
0.103904
-7.43123e-05
0.0461046
0.0581969
-0.174625
0.00559643
-0.346871
0.0167971
-0.135125
-0.00657076
0.245431
-0.251164
0.1061
0.00419496
-0.182261
0.0162952
-0.131217
-0.262953
-0.0979226
0.00160267
0.0582276
-0.0059939
-0.247766
0.00266547
0.0145604
0.00291607
0.070819
0.0420046
0.00809489
0.00726472
-0.319031
0.367902
-0.25259
-0.303829
0.00265216
0.0296717
-0.00061871
0.000216234
-0.394067
-0.315747
-1.97997e-05
0.0128234
0.00292668
-0.329201
-0.0333851
0.00582726
0.0181728
0.018229
-0.0825255
0.0092784
0.0108972
0.00173091
0.00693518
0.114151
-0.321694
0.0211502
-0.00164328
0.107913
0.000373279
-0.00053391
0.0020711
-0.12241
0.0194469
0.00259659
0.000216046
0.00256666
0.00078095
0.00235722
0.00123451
0.00283737
0.002657
-0.00150165
0.000251679
0.00165924
0.00101426
0.00408629
0.0279152
-0.315706
0.00165467
0.00353479
-0.150719
0.000361384
-0.00939985
0.0156065
-0.00128619
0.00247761
0.119778
0.0139025
0.00192095
0.00714889
0.0308711
0.0165146
0.00668388
0.0110957
0.0157554
0.00984484
0.0476993
0.0252902
-0.390106
0.271516
0.00584455
-0.110384
0.00937936
0.00355184
0.00483475
-0.260141
0.259613
0.00812696
0.0308361
0.0137687
0.0622234
-0.251801
0.00831421
0.0466402
0.0418373
0.0196438
0.0462299
0.00516594
0.0203396
0.0116489
0.0162882
0.0240969
0.0138588
0.0377992
0.0478673
0.0150241
0.0197353
0.0112465
0.00486346
0.0191119
0.00536382
-0.503914
-0.108799
0.0446731
0.0295501
-0.198912
-0.271618
0.0142373
0.00725382
-0.30666
0.105688
0.136369
0.00172007
0.000535339
0.0233753
0.002178
-0.228899
0.0135238
0.00096407
0.00765625
0.017384
0.0142825
0.00965514
0.0338192
-0.0289673
0.0192637
-0.282078
0.055226
0.0118733
0.0134501
0.0233142
-0.00653114
0.225493
0.0175587
-0.186082
0.536349
0.0572419
0.000407996
0.00699498
-0.109509
-0.0537681
0.0247056
0.0120452
-0.0256955
0.0117798
-0.0784693
-0.232708
0.0378767
0.096925
-0.0672968
-0.271526
-0.310671
-0.30853
-0.310219
0.051153
0.00702895
-0.002376
-0.0268912
-0.0646586
0.00169159
0.00647485
0.00163869
-0.497728
0.0559478
0.00737862
0.0112752
-0.280576
0.0661444
0.00663334
0.0899115
-0.34178
0.0392634
-0.0412141
0.0371901
0.0754149
-0.288743
0.00769407
-0.28441
-0.0130675
0.0871793
0.014766
-0.00748371
0.00952891
-0.186855
-0.336983
-0.017382
-0.011243
-0.115415
0.00766989
-0.020917
0.00532917
-0.0330539
-0.0211568
-0.296533
0.0145677
-0.0014966
-0.00471033
-0.336393
-0.216942
0.0583432
-0.0214332
-0.136853
-0.0670585
0.40961
-0.286498
0.00348317
-0.125462
-0.000178149
0.0218979
0.0030864
0.0619487
-0.0306282
0.017521
-0.0839421
-0.0294803
-0.00320231
-0.00597697
-0.0070014
-0.00534403
0.0118929
0.093006
0.0359763
-0.00171115
0.00289012
0.0172224
-0.0695873
0.00834624
-0.377172
-0.00667537
0.0241548
0.0118742
-0.220326
-0.308091
-0.0420256
-0.0979625
-0.0412483
0.00699569
-0.267416
-0.249889
0.237917
-0.31174
-0.449114
-0.253026
-0.0818194
-0.0701526
-0.308529
0.339271
-0.0916946
-0.298212
-0.0126347
0.0520831
0.556875
0.00218593
-0.0113687
0.0456648
-0.08795
-0.0330008
-0.365453
-0.247672
0.014741
0.0398775
0.0320029
-0.266945
-0.30894
-0.203715
-0.00112174
0.0265408
0.0816869
-0.0405893
-0.0844867
0.0675546
-0.0143661
0.00450877
-0.205841
-0.277436
-0.00675595
-0.0856839
0.000994069
-0.00262945
0.0559763
-0.0619123
0.0167237
-0.455283
0.43886
-0.283495
-0.286542
-0.0492057
0.0101967
-0.279475
-0.265761
0.098623
-0.328405
-0.174577
0.853701
-0.00419463
-0.348081
-0.0134337
-0.0805521
-0.011459
-0.455107
-0.276259
-0.308291
0.00620423
-0.226072
-0.3526
-0.0256296
-0.0413667
0.105344
-0.310656
0.0203176
-0.493103
-0.298569
-0.358337
-0.0646721
0.0114201
-0.00808986
0.0953882
0.106213
-0.0477287
-0.285106
0.290723
0.0287156
0.00850086
-0.429139
-0.489364
-0.328302
-0.000790068
-0.341915
0.0288341
0.0421042
0.00694852
-0.233289
-0.237491
0.00466044
-0.302034
-0.255158
0.00275565
-0.0248969
-0.286554
-0.0254017
0.026406
-0.375618
-0.319021
-0.120863
0.0970085
0.00921819
-0.323339
-0.269912
-0.327056
-0.166398
0.0339216
0.0921476
0.00278682
-0.336495
-0.272593
0.0974098
0.0058949
-0.154356
0.0188465
0.0216207
-0.306679
0.0184059
-0.273445
0.0267897
-0.29513
0.0458478
-0.00115955
-0.337387
-0.425305
0.000827873
-0.469301
-0.452607
0.0237253
-0.0546407
-0.266023
0.00404674
-0.293485
0.0152137
0.0805223
0.0407683
-0.309816
0.0164807
0.0691925
-0.423694
0.0134713
-0.298279
0.00226361
-0.320128
-0.478401
0.0810189
0.275207
0.433535
0.0059406
0.000283238
-0.000188102
-0.333855
0.640802
0.00135411
-0.191945
0.00933827
-0.0817335
0.0603802
0.486249
-0.342807
-0.0648669
-0.0547889
0.0191015
-0.00271127
-0.421672
-0.275862
-0.296982
-0.280579
-0.281785
-0.0178655
-0.36212
0.0162174
-0.24428
-0.288069
0.518714
0.592222
-0.268015
0.0971785
-0.271738
-0.0458971
-0.0195742
0.415078
-0.0381949
-0.31355
0.0350472
-0.478087
-0.0322423
-0.180959
-0.0092456
-0.289876
-0.246176
0.000997258
0.00176736
-0.317282
0.43202
0.673921
-0.323301
-0.275923
-0.320623
-0.0723315
-0.28129
-0.265834
-0.165262
-0.315709
0.75675
-0.315441
0.730736
-0.409624
0.314348
-0.309516
-0.00885624
0.178938
-0.469522
0.206
-0.249102
-0.286727
-0.314405
0.868104
-0.27535
0.193523
0.131115
0.630821
0.105837
-0.288907
-0.249334
-0.193668
0.00155472
0.0980306
0.504945
0.00204932
-0.0282173
-0.268002
0.131822
-0.134535
-0.306112
0.0162136
-0.258789
-0.170287
-0.136726
-0.362283
-0.0099515
0.0838226
-0.0172197
0.0712837
0.0903239
-0.306353
-0.332181
-0.0205907
0.00514005
-0.436566
-0.48198
0.187197
0.194914
0.069296
0.672041
-0.0932741
-0.308975
-0.358822
-0.27579
-0.0736573
0.0911502
0.76137
-0.421724
0.359874
-0.0244105
-0.396051
0.153228
-0.0597815
0.370048
-0.143038
0.00204221
-0.324663
-0.0923037
0.178174
0.802786
0.321266
0.760613
-0.331379
-0.271912
-0.41244
0.175051
0.268117
0.0542211
0.386293
0.119272
0.490284
0.281769
-0.0131654
-0.198629
0.00741609
-0.29131
0.878154
0.40064
0.65438
0.506974
-0.246064
-0.32458
-0.269304
-0.29344
0.0390615
-0.40902
0.0866718
0.59774
-0.344118
0.00272759
-0.295426
0.184563
-0.304386
-0.339887
-0.180001
-0.257535
-0.288583
-0.300466
-0.33396
-0.143608
-0.411448
-0.145764
-0.299651
0.148499
0.640841
-0.199824
-0.314578
0.827065
-0.31458
0.271555
-0.216401
0.371542
0.0688111
-0.323053
-0.368254
0.450694
-0.284303
-0.298987
0.17347
-0.254919
-0.0373122
-0.27353
-0.102185
0.0173189
0.558297
0.772935
-0.271765
0.211114
-0.291102
0.817097
-0.0272097
-0.289567
-0.0383384
0.753283
0.20676
-0.296988
-0.264713
0.441141
-0.194598
0.0442146
0.358905
0.253033
0.282133
-0.23167
-0.283793
0.682226
)
;

boundaryField
{
    FrontBack
    {
        type            empty;
    }
    Top
    {
        type            zeroGradient;
    }
    In
    {
        type            zeroGradient;
    }
    Bottom
    {
        type            zeroGradient;
    }
    Out
    {
        type            fixedValue;
        value           uniform 0;
    }
    circle
    {
        type            zeroGradient;
    }
}


// ************************************************************************* //
