/*--------------------------------*- C++ -*----------------------------------*\
| =========                 |                                                 |
| \\      /  F ield         | OpenFOAM: The Open Source CFD Toolbox           |
|  \\    /   O peration     | Version:  2412                                  |
|   \\  /    A nd           | Website:  www.openfoam.com                      |
|    \\/     M anipulation  |                                                 |
\*---------------------------------------------------------------------------*/
FoamFile
{
    version     2.0;
    format      ascii;
    arch        "LSB;label=32;scalar=64";
    class       surfaceScalarField;
    location    "14";
    object      phi;
}
// * * * * * * * * * * * * * * * * * * * * * * * * * * * * * * * * * * * * * //

dimensions      [0 3 -1 0 0 0 0];

oriented        oriented;

internalField   nonuniform List<scalar> 
1171
(
-0.945388
0.945388
0.771889
-1.08202
0.31013
-0.235002
-0.756911
0.991913
0.0546119
-0.0672327
-0.278369
0.345602
-0.771889
0.0905723
0.681317
0.929324
-0.215977
-0.713347
0.839755
-1.04199
0.202236
-0.357596
-0.0382356
0.395832
-0.00452751
0.60637
-0.601843
-0.546796
0.939369
-0.392573
-0.424829
1.00744
-0.16769
0.223475
0.0999192
-0.323394
0.97941
0.0280338
0.263277
-0.0398023
0.999501
-0.020091
0.663298
-0.8983
-0.784693
0.607474
0.177219
0.254541
-0.801337
0.556818
-0.913511
0.356694
-1.08107
0.671473
0.409601
-0.645802
0.641275
0.0300763
-0.248888
0.218812
0.0413425
-0.638621
0.597278
0.467845
-0.50608
-0.839702
0.860335
-0.0206328
0.991039
0.00846236
0.892088
-1.05243
0.16034
0.993301
-0.00226228
-0.697974
-0.086719
1.2321
-0.833068
-0.399029
0.153599
-0.0790952
-0.411747
0.490843
-0.273471
0.187068
0.0864032
-0.604309
-0.47771
0.963935
-0.0718471
-0.0289204
0.878608
-0.849688
0.522762
0.709334
0.527275
0.0214518
0.446393
-0.79093
-0.106175
0.897106
0.575881
0.236989
-0.812871
0.0545618
0.599594
-0.654156
-0.510254
-0.57082
-0.378273
-0.674155
0.0272015
0.247179
-0.27438
-0.946825
-0.0370025
0.983827
0.375623
0.0202085
0.831468
0.0978564
-0.604312
-0.0414905
0.0352902
-0.826221
0.0960305
0.898494
-0.994524
-0.405195
0.0304497
0.374746
-0.713392
-0.233432
-0.68396
0.77999
0.689448
0.249922
-0.580391
0.994472
-0.817638
-0.176834
-0.145118
0.028512
0.116606
-0.460293
-0.0457871
-0.298868
0.988316
-0.0050047
0.433844
-0.428839
-0.503269
1.07915
0.714341
-0.820516
0.395826
-0.0732109
-0.322615
0.763766
-0.763766
-0.895842
0.0407715
-0.319141
-0.689944
0.661023
-0.0341039
-0.145702
0.179806
0.882748
-0.0041397
1.03371
-0.79672
0.22574
-0.322355
0.096615
0.964107
-0.132639
-0.674197
-0.049666
0.723863
0.148562
-0.229912
0.0813503
0.788801
-1.00478
-0.439164
0.309212
0.129952
0.682569
-0.641227
0.850831
-0.384801
-0.46603
0.472558
-0.69355
0.0350727
0.658477
0.151237
0.663723
0.0479884
-0.711711
0.136885
-0.0961138
-0.509426
0.104231
0.0350221
-0.905045
0.870023
-0.538701
-0.757734
0.0597601
0.501246
-0.0548532
0.27628
-0.833649
0.557369
0.424526
0.575474
0.600127
-0.564837
-0.390822
-0.0145179
0.405339
0.561941
0.201825
-0.674064
0.728626
0.0894986
0.879373
0.00455816
-0.678755
-0.764127
0.799149
0.614056
0.104479
0.355081
-0.45956
-0.154748
0.553644
0.0459501
0.906272
-0.834709
-0.0715628
0.655527
0.338944
-0.433092
0.694893
-0.590414
0.409088
0.14773
-0.0578652
-0.70186
-0.217292
0.919152
-0.130868
-0.632898
-0.613263
0.361988
0.251275
0.660257
-0.655698
0.311498
1.02021
0.0135015
-0.764127
-0.193362
0.0482438
0.714341
0.784811
-0.784811
0.845285
-0.831626
-0.0136586
-0.453916
0.878442
-0.192744
-0.316682
0.763494
-0.669879
-0.0936156
-0.901016
0.199155
0.109936
-0.714248
0.820516
-0.975264
-0.198619
0.189953
0.00866596
0.115976
-0.985922
0.869946
0.547338
-0.0200635
-0.288609
0.594252
-0.305643
-0.644832
0.760808
-0.157381
0.680646
-0.878766
0.19812
1.06316
-0.622103
-0.44106
0.726946
-0.0712807
-0.000190643
-0.000556618
0.00074726
-0.799224
-0.879884
0.122973
-0.689944
0.575557
-0.545108
0.179249
0.656647
-0.835896
0.777786
0.167603
0.491598
0.508402
-0.0758748
-0.71026
0.786135
0.937886
-0.031614
-0.726946
0.799149
0.181733
-0.430622
-0.0305728
0.0158803
0.0146925
0.67372
-0.430423
-0.243297
0.681317
-0.0568779
-0.199238
0.565938
0.107782
-0.0181179
0.000869917
0.017248
0.00592951
-0.00612015
0.141159
-0.21437
-0.942193
0.0342855
-0.143044
-0.05746
0.13414
0.780282
0.741825
-0.166351
0.601027
-0.421778
-0.163368
0.389108
0.631331
0.0499861
0.229112
-1.06074
-0.975264
0.32077
0.661023
-0.163085
0.0173833
-0.814567
1.00739
-0.192819
0.480694
-0.105948
0.798742
0.30645
0.272382
-0.00910494
-0.680273
0.680273
0.227943
0.669163
-0.0221482
0.455992
0.468694
0.00645696
-0.0370297
0.542426
0.00491238
-0.644832
0.570112
0.193382
-0.00766268
0.00710607
-0.631331
0.172044
0.835343
-0.0153424
-0.714713
0.730055
0.760555
-0.821405
0.0608496
-0.777786
-0.0345915
0.0486382
-0.0140467
0.0864886
-0.117966
-0.102466
0.220432
-0.00659506
-0.0115228
0.713921
-0.729264
0.917901
0.0740124
-0.360111
-0.533852
0.893964
-0.00145553
0.00145553
0.175435
0.472613
0.61621
-1.08882
-0.194994
-0.540362
0.735355
-0.0198141
0.19962
0.380407
-0.231846
1.05878
-0.586163
0.795496
1.04564
-0.429425
0.187664
0.760808
0.593118
0.213942
0.646393
-0.632898
0.319727
-0.0205712
-0.00623935
0.0268106
0.918846
0.0138252
-0.932671
-0.573027
0.570765
0.546084
-0.573027
-0.593118
0.570765
0.00850513
0.953497
-0.0355958
-0.561941
0.50677
0.0551709
0.5283
0.584136
-1.11244
0.508874
0.549902
0.594079
0.493712
-1.08779
0.53543
0.510206
0.50677
-0.496266
-0.492617
-0.607271
-0.569984
-0.222119
-0.0069996
0.0069996
0.570547
0.527969
-1.09795
0.710888
-0.355807
-1.00907
0.386972
-0.688234
0.454802
-0.0401562
-0.915268
0.955424
0.453216
-0.0770242
0.99587
-1.04407
-0.978952
0.072436
0.906516
0.311119
-0.217735
-0.0933842
0.721639
-0.793486
0.956801
-0.934717
-0.0220843
-0.0241546
-0.810555
-0.189746
0.883888
-0.694143
-1.01389
0.989731
-0.684405
0.5904
0.0940049
-0.757587
-0.00695121
0.764539
0.00363721
-0.00509274
0.42401
0.0872701
-0.928196
0.840925
-0.805606
0.729732
1.0364
0.0960518
-1.13245
0.0574428
-0.0118128
0.417152
-0.36158
0.0392254
0.907674
-0.94783
-0.683575
-0.800201
-0.0103534
-0.156616
-0.918742
-0.0159748
0.486285
0.114742
-0.0486105
0.35973
-0.739629
0.732678
0.46603
-0.992292
-0.917834
0.0356626
-0.0297979
0.701075
-0.671278
0.0366821
-0.713373
0.578573
0.181982
0.0385538
0.957316
1.06217
0.919733
-0.935708
0.04668
-0.04668
-0.0752891
-0.0858221
-0.131913
0.339341
-0.0185708
0.215504
0.993998
0.0116735
-0.0182686
0.658171
0.341829
0.798048
-0.604309
-0.746734
-0.657452
-0.550132
0.550132
-0.2092
-0.109941
0.647069
-0.928595
0.281526
-0.493623
-0.54073
0.328552
-1.00271
-0.95807
0.935986
-0.768606
0.758253
0.652154
0.203207
-0.855362
-0.563448
-0.188606
0.857615
-0.66901
-0.0359284
0.00990093
0.00181809
-0.011719
-0.0325739
-0.0532482
0.975621
0.620528
-0.284193
-0.336335
0.527144
0.751156
-0.523214
0.0145889
-0.28806
0.0147105
0.775957
-0.790668
-0.350554
-0.0769805
0.145134
-1.03972
0.107048
-0.725388
0.122074
0.722623
-0.844697
-0.87963
0.154242
0.714277
-0.791257
0.233891
-0.351857
-0.577287
0.0138397
0.368189
0.721947
-0.0270541
-0.00354638
0.00354638
-0.00612968
0.0125598
-0.0331311
-0.0141707
0.0258443
-0.462546
0.342386
0.744605
-0.820479
0.0758742
-0.684824
0.806898
0.803208
-0.0889314
-0.690596
-0.189034
-1.10089
0.0210166
0.0256634
-0.447835
-0.880341
-0.843066
0.444037
-0.191634
0.239786
-0.048152
-0.394471
-0.0533645
0.508461
0.712783
-0.0464402
-0.0110198
1.02588
0.522533
0.178159
-0.700692
-0.351684
-0.0427867
-0.00238714
0.0122881
0.715678
-0.93297
0.00503313
-0.00503313
-0.722294
0.751855
-0.0295602
-0.400294
-0.121427
-0.694649
0.16327
0.622865
-0.0544055
-0.883254
-0.373764
0.259134
0.11463
0.756194
-0.68032
0.34929
0.255092
-0.604382
-0.164663
-0.700428
-0.144268
-0.199761
-0.210494
0.470455
-0.516242
0.181115
0.736672
-0.917788
0.472558
-0.193909
0.0022747
-0.0361812
-0.174313
0.594492
-0.0946483
-0.499843
-0.287135
0.308029
-0.0208937
0.568495
0.142393
0.10278
-0.313692
0.171769
0.141923
-0.127758
-0.0656039
-0.307801
0.163939
-0.0820562
-0.0818833
0.902544
-0.281731
-0.118563
0.554556
0.314861
-0.599055
0.467782
-0.467782
-0.228314
-0.463741
-0.236519
-0.463741
-0.68841
-0.850232
0.180353
-0.413644
0.724587
0.0493842
0.14325
0.578698
0.110032
0.119514
0.00995555
-0.12947
-0.154511
0.661769
-1.00127
0.467421
-0.0442792
0.0685176
-0.0242385
-0.757941
-0.17765
-0.572013
0.750172
-0.512975
-0.0445139
-0.129799
-0.341186
-0.0795994
0.0795994
0.0487516
-0.000113401
0.140531
0.174182
-0.711745
0.139731
-0.0505185
0.473225
0.526775
0.832512
0.0165565
0.0174574
-0.034014
-0.301485
-0.58177
-0.536127
0.115804
-0.120396
0.00459213
-0.102558
-0.411331
-0.147687
0.770552
-0.588554
-0.169387
-0.0160019
-0.00120573
0.225009
-0.475142
-0.199244
-0.19014
-0.0242299
-0.471288
0.430919
0.0403688
-0.0451435
0.294991
-0.86581
-0.534492
0.616042
-0.870812
0.706149
0.444179
-0.0302695
0.0537238
-0.0234543
0.126578
-0.634833
-0.00800102
0.642834
-0.893136
0.651559
-0.726848
-0.0652876
0.00717098
-0.00717098
-0.299103
0.425489
-0.00833682
-0.00409916
0.0206557
0.587002
0.621403
-0.692965
0.0117811
0.000333043
-0.00387942
0.00518094
-0.00518094
-0.479756
0.622149
0.0157022
-0.0157022
-0.779195
-0.00831434
0.0119516
-0.502427
0.642159
0.586154
-0.615714
0.0698931
-0.0698931
-0.00712444
-0.0299053
0.00947961
-1.03055
0.589493
-0.527908
-0.00509274
0.606801
0.0060622
-0.612863
-0.713685
0.125131
-0.314181
-0.0132425
0.327424
-0.0245217
-0.0219185
-0.608087
-0.0267463
0.0256634
0.0055799
-0.000546765
-0.00308292
0.00308292
-0.293904
0.212021
-0.462986
0.134888
0.66316
-0.121995
0.00536447
-0.00536447
0.508298
-0.115412
0.00862651
0.0184925
8.8197e-05
0.610887
-0.726299
-0.74262
0.624057
-0.102419
0.331706
0.766777
-0.00612968
-0.0836026
0.0907087
-0.659542
0.547029
-0.286415
-0.106884
-0.0295138
-0.0261997
0.00328669
0.473607
-0.0852572
-0.414586
0.702009
0.00181866
0.00326708
-0.00326708
-0.202246
-0.119722
-0.569845
0.619229
-0.132736
0.508995
-0.182135
0.845433
0.816011
0.0055799
-0.724006
0.616773
0.0409625
0.00363464
-0.0445972
0.578913
0.0863917
-0.0116414
0.0645711
-0.0529297
0.00855848
-0.00855848
-0.769044
0.0232131
-0.0444173
0.0629097
-0.0853399
0.0853399
0.000333043
-0.000765213
0.745595
0.0897481
-0.315753
-0.095578
-0.520866
0.0249606
-0.065803
0.065803
-0.0411384
0.0820644
-0.0820644
0.0258976
-0.0258976
-0.358091
-0.0750006
0.238832
0.0703803
0.0389887
-0.732785
-0.0627199
0.159525
0.0222079
-0.237397
0.081981
-0.081981
-0.467563
-0.0486783
0.228293
-0.00948078
0.00249698
-0.666127
0.657621
-0.00123373
-0.0399047
0.0464783
-0.0763836
-0.0121713
-0.158164
0.170335
-0.148844
-0.203013
-0.0803747
0.0803747
0.0539377
-0.0539377
-0.02768
-0.0936126
0.121293
-0.041008
-0.19052
-6.20981e-05
-0.00381732
-0.177562
0.389583
-0.0256617
0.464597
0.00918279
0.00806521
-0.050083
0.050083
-0.734849
0.315209
-0.127545
-0.206931
-0.0229812
-0.0165351
0.0190321
0.192316
0.0281161
-0.00200694
0.00209514
0.0857731
0.0300312
0.056432
0.103093
-0.0208721
0.0098523
-0.00176606
0.00497215
0.00496893
0.00101553
-0.00598445
-0.00293404
0.0110014
0.0271562
-0.0271562
0.048036
-0.0435911
0.0435911
-0.189812
0.0130374
0.029971
-0.0753494
0.0173391
0.0782144
-0.0782144
0.232685
-0.233544
0.0846999
-0.0662325
-0.167311
-0.0147565
0.0147565
0.407676
0.250801
-0.521459
-0.0805621
-0.0398343
0.542564
0.0054703
-0.0554865
-0.458226
0.0650448
-0.151435
0.16839
-0.0169554
-0.0481833
0.0481833
0.831822
-0.589715
-0.00475503
0.001821
-0.00574046
-0.287591
-8.34526e-05
0.00496515
-0.0453366
-0.630098
0.569544
-0.662747
0.0145718
0.134458
0.0157199
0.0241854
-0.157175
-0.332782
0.257433
-0.0544615
0.0267815
0.172863
0.135166
0.240465
0.262016
-0.246296
0.00442216
-0.114728
-0.220173
0.0668612
-0.0104292
0.158656
-0.13447
-0.0684782
0.154251
-0.407655
0.119162
-0.101823
0.0583197
-0.472906
0.173355
0.179951
-0.248429
0.0089945
-0.179141
0.179058
0.00376652
0.150485
-0.0278889
0.0478282
0.46047
0.0123997
0.0113261
-0.00176279
0.0367101
-0.237129
-0.20283
0.591583
0.166749
0.0615442
0.073928
-0.0640781
0.0477707
-0.0923679
-0.0304587
0.164946
-0.150374
0.0146128
-0.00857236
-0.106257
-0.0286562
0.0244651
0.251727
-0.0140466
-0.0286129
-0.308961
-0.0088811
0.219177
0.137959
0.17725
0.0568328
0.0956309
0.057353
0.529649
-0.00775051
0.106506
0.0408879
0.0677232
-0.108611
-0.270658
-0.194792
0.0274804
-0.221179
0.281481
)
;

boundaryField
{
    FrontBack
    {
        type            empty;
    }
    Top
    {
        type            calculated;
        value           uniform 0;
    }
    In
    {
        type            calculated;
        value           uniform -1;
    }
    Bottom
    {
        type            calculated;
        value           uniform 0;
    }
    Out
    {
        type            calculated;
        value           nonuniform List<scalar> 10(1.10295 1.02457 1.09989 1.08533 1.07785 1.08019 1.09852 1.03435 0.696096 0.70026);
    }
    circle
    {
        type            calculated;
        value           uniform 0;
    }
}


// ************************************************************************* //
