/*--------------------------------*- C++ -*----------------------------------*\
| =========                 |                                                 |
| \\      /  F ield         | OpenFOAM: The Open Source CFD Toolbox           |
|  \\    /   O peration     | Version:  2412                                  |
|   \\  /    A nd           | Website:  www.openfoam.com                      |
|    \\/     M anipulation  |                                                 |
\*---------------------------------------------------------------------------*/
FoamFile
{
    version     2.0;
    format      ascii;
    arch        "LSB;label=32;scalar=64";
    class       volVectorField;
    location    "14";
    object      U;
}
// * * * * * * * * * * * * * * * * * * * * * * * * * * * * * * * * * * * * * //

dimensions      [0 1 -1 0 0 0 0];

internalField   nonuniform List<vector> 
808
(
(0.891111 -0.0136029 0)
(1.02423 -0.0369793 0)
(1.13848 0.0204836 0)
(1.07058 0.0122302 -1.99164e-21)
(1.48029 -0.28886 0)
(0.957755 -0.0261278 0)
(1.13162 -0.0588386 2.6371e-21)
(1.11342 -0.0233276 0)
(1.35555 -0.227835 2.8008e-20)
(1.23204 -0.0891405 -1.38297e-20)
(1.14209 -0.028186 5.73794e-21)
(1.3857 -0.257793 0)
(1.00254 -0.0282423 0)
(0.730286 -0.0251553 0)
(0.903327 0.0727872 1.72088e-20)
(1.07611 -0.0264165 0)
(0.792316 0.0281309 -5.38557e-21)
(0.989321 -0.0237759 -8.36988e-25)
(1.14743 0.0275646 0)
(1.11545 0.0052692 0)
(1.16872 -0.0468245 -8.00784e-21)
(0.929211 0.122286 1.08363e-19)
(1.07637 0.0131779 -1.05621e-20)
(1.17882 -0.0325904 0)
(0.948844 0.178672 0)
(1.34702 0.0722172 -3.03144e-20)
(1.28476 -0.176344 1.22776e-20)
(0.942016 0.00457116 -9.35026e-22)
(1.05696 -0.0119381 0)
(1.03104 0.0332824 -1.88377e-22)
(0.966875 -0.00757709 1.05959e-26)
(1.12273 -0.0120363 0)
(1.01561 0.0236246 0)
(1.04179 0.00858623 7.05338e-22)
(1.30829 -0.0711406 1.06652e-20)
(0.741978 -0.120393 1.08545e-19)
(0.866102 -0.0327093 3.44034e-22)
(1.00229 0.0334492 5.74474e-22)
(1.19115 0.0482167 1.37058e-22)
(1.07232 0.0228818 0)
(1.26364 -0.0641403 -2.13019e-20)
(1.27755 -0.131348 0)
(1.00671 -0.000298829 -4.743e-21)
(1.10236 -0.0415922 3.14028e-21)
(1.25033 -0.00968157 0)
(1.01096 0.0174464 -1.72508e-20)
(0.977135 0.0324473 1.45754e-24)
(1.25699 -0.251751 1.29294e-20)
(1.17385 0.0541255 1.14765e-21)
(1.41167 -0.181335 -4.04628e-20)
(1.12494 -0.0694255 -3.62582e-21)
(1.15195 -0.0712362 0)
(1.12177 0.000372762 4.2115e-21)
(1.0743 -0.00269383 0)
(1.31292 0.238059 4.76995e-21)
(1.06386 0.0470924 3.5261e-22)
(1.07764 -0.00334744 0)
(1.16619 -0.0258239 3.27776e-21)
(1.23758 -0.0943884 1.48451e-20)
(1.14 0.0317167 1.30061e-21)
(-0.372039 0.160743 0)
(1.21739 -0.215135 -1.00883e-20)
(1.15901 -0.034841 0)
(1.43586 -0.076674 -3.20531e-20)
(1.11685 -0.0305038 -4.23725e-21)
(1.03865 -0.0290265 -4.79808e-21)
(1.36551 -0.12874 3.24849e-20)
(0.614474 0.00474793 0)
(1.11477 -0.0533578 0)
(1.44837 -0.356445 0)
(0.874116 0.0346181 -4.75392e-23)
(1.25445 -0.143124 -4.28184e-20)
(1.00043 0.0579226 0)
(1.04669 -0.0386376 -8.09851e-23)
(1.12736 -0.339114 -5.26532e-20)
(1.1087 -0.0619042 -1.06798e-21)
(1.14056 0.0264317 8.6284e-22)
(1.31196 0.493095 2.45882e-20)
(1.10549 -0.0532513 0)
(1.01113 0.277108 -1.79368e-19)
(1.35835 0.0453386 1.86452e-20)
(0.716868 0.023366 0)
(0.834749 0.0343558 -2.22153e-21)
(0.968405 -0.112083 3.94556e-21)
(1.1018 -0.0586231 1.31798e-21)
(1.18842 0.0176071 2.14611e-21)
(1.28998 -0.238657 0)
(1.34087 0.284756 0)
(1.08996 0.00281495 -2.10302e-21)
(1.37671 0.107794 3.42391e-20)
(1.07574 -0.0176423 5.72468e-21)
(1.32472 -0.122556 -1.62731e-21)
(0.965056 0.0252257 1.6404e-20)
(1.00382 -0.0233492 0)
(1.11896 0.0181682 9.87769e-22)
(1.33522 -0.0567343 -8.60102e-20)
(0.786048 0.00358497 -1.16206e-22)
(1.37414 -0.0371219 0)
(1.32876 -0.0864842 0)
(1.43363 -0.0912615 -5.00217e-20)
(1.08919 -0.0593028 5.78254e-22)
(1.12208 0.0129004 1.47943e-22)
(0.953071 0.0241692 5.37565e-21)
(1.18196 0.00780968 -1.01443e-21)
(1.32014 0.0362961 -3.05996e-20)
(1.00041 0.00562 1.05139e-20)
(1.47381 -0.0281916 0)
(0.990134 0.0228016 0)
(1.09097 0.0311553 -1.18362e-21)
(1.20646 -0.221188 -5.10683e-21)
(1.26822 0.020966 1.50722e-20)
(1.04485 0.0449088 -1.19606e-19)
(1.15252 0.042233 6.43394e-22)
(1.21823 0.0879052 1.50088e-21)
(0.814384 0.00877581 0)
(0.91755 -0.0499897 7.36311e-20)
(1.14334 0.0223568 2.35029e-21)
(1.44305 -0.267523 -1.95214e-20)
(1.10088 -0.0467892 -1.2779e-21)
(0.920436 0.0161785 2.36293e-21)
(-0.47445 0.00821029 0)
(0.866106 -0.015348 2.32822e-21)
(0.808836 0.0275707 0)
(1.06755 0.00190406 -5.5839e-23)
(1.01201 0.02926 0)
(1.30339 0.321922 7.3549e-21)
(1.03436 -0.0542729 -2.52548e-20)
(1.34449 0.0943019 9.45091e-22)
(1.1523 -0.0626197 0)
(1.09026 -0.0228242 0)
(0.621689 -0.0452293 0)
(1.10827 -0.0358742 -8.54573e-22)
(1.24777 -0.047538 1.25571e-20)
(1.06447 0.112036 -3.15676e-20)
(0.858858 -0.0158258 0)
(1.10061 0.0218997 5.27007e-22)
(1.16629 0.122052 2.31581e-21)
(1.13528 0.00854716 -4.05556e-22)
(0.974606 0.0337328 1.2961e-22)
(1.12477 0.0118632 -1.24025e-22)
(-0.0260439 0.0182295 0)
(1.09454 -0.0220869 -6.44905e-21)
(1.16025 0.0626401 2.12227e-21)
(0.722333 0.0270025 -2.65287e-22)
(1.25369 0.170097 2.81685e-21)
(1.15142 0.133665 1.97737e-21)
(1.04992 0.0174982 1.25253e-20)
(0.991709 0.0279229 0)
(1.20572 -0.0705287 -3.39326e-20)
(1.04842 0.031866 0)
(0.921161 0.032681 2.30923e-22)
(0.967784 0.277109 1.43453e-19)
(0.958211 0.0330278 0)
(0.818156 0.0924588 0)
(-0.122794 -0.0174522 -6.74587e-20)
(1.33412 0.137142 -1.23807e-20)
(0.658373 -0.0233969 0)
(1.42628 0.0655921 0)
(1.14225 0.0863173 0)
(1.35083 0.109185 1.38129e-20)
(-0.0425065 -0.130483 0)
(-0.0649105 0.0238635 3.20645e-20)
(1.01589 -0.0566973 8.8777e-20)
(0.994485 0.0369998 -4.68408e-22)
(0.865857 0.00029779 0)
(1.02923 -0.0452701 2.12096e-21)
(0.894731 0.0222624 0)
(0.765739 -0.0407012 -9.59366e-20)
(1.01983 0.0469424 -1.32825e-21)
(1.11183 -0.0405666 1.63718e-21)
(1.09322 0.0109324 1.83365e-21)
(1.01325 0.0680564 -1.10837e-20)
(0.852954 0.0954734 -1.96849e-21)
(1.14133 -0.352191 4.08534e-22)
(0.91586 -0.0238189 0)
(1.06611 0.000965968 -9.29551e-21)
(0.876037 0.00951314 -8.92756e-21)
(1.38528 -0.170199 2.47069e-21)
(0.685485 0.0282365 0)
(1.05074 -0.146197 0)
(1.1092 -0.0352871 1.8615e-21)
(1.38243 0.216294 9.8294e-21)
(1.11471 0.0197402 3.41861e-22)
(1.03682 0.0183438 1.7648e-20)
(0.647145 0.0697167 -6.81108e-20)
(0.812652 0.00356356 1.70269e-20)
(1.14019 -0.0216665 5.78944e-22)
(1.38847 -0.0665582 -5.99053e-21)
(1.10619 -0.0383569 -3.09505e-21)
(1.32451 -0.0382445 5.13338e-21)
(-0.125862 0.0165033 4.88746e-20)
(1.27485 -0.0188972 0)
(0.587323 -0.0193379 0)
(1.06369 -0.0237095 -4.42427e-21)
(1.09895 0.0153758 -2.38018e-21)
(0.00790972 0.0629906 0)
(0.882477 -0.0234841 4.28207e-23)
(1.12177 -0.0341961 -1.30375e-21)
(0.993991 -0.00614661 4.98487e-22)
(1.07815 0.0394978 -6.46911e-21)
(1.01028 0.0194178 2.64148e-21)
(1.04541 -0.0285153 1.15006e-21)
(1.04153 0.0223262 0)
(0.338324 -0.0448247 0)
(1.0468 -0.0637875 0)
(1.12274 0.107317 -2.74033e-20)
(-0.0384058 -0.14178 4.88704e-20)
(1.0699 -0.0169531 -4.25154e-24)
(1.15484 0.0164199 0)
(0.762951 0.0234164 -7.91544e-23)
(1.1216 -0.0165006 1.2707e-22)
(-0.00827665 -0.0401828 -1.56141e-19)
(0.863371 0.0107981 -5.94863e-20)
(0.605843 -0.0204858 0)
(1.02969 -0.0129567 0)
(0.907158 0.0463413 1.54715e-21)
(1.02132 -0.116622 6.06826e-21)
(1.27082 0.395087 -5.07249e-22)
(1.09524 -0.00270108 -4.7759e-23)
(1.16692 -0.0352533 -2.61083e-21)
(1.03955 0.0114735 0)
(1.35364 0.420069 -3.74471e-20)
(0.636322 -0.0210283 0)
(0.810935 -0.0134801 -9.82526e-22)
(1.02968 0.00662736 -1.65019e-23)
(0.54824 0.0133327 0)
(1.10035 -0.00654821 0)
(0.0562998 0.00314247 -5.04484e-20)
(1.18189 -0.0529862 -4.4704e-21)
(0.768641 0.00318984 3.41827e-23)
(0.99066 -0.00260575 0)
(0.547411 -0.0044109 0)
(0.781888 -0.00243128 -1.54554e-22)
(0.557868 -0.00501131 2.67654e-22)
(1.34305 0.0523887 3.58147e-22)
(1.15859 0.000599054 -2.63913e-21)
(0.758909 -0.00324017 -1.8568e-22)
(1.06436 0.0019105 2.24841e-23)
(1.11826 -0.00308264 4.50023e-23)
(0.55648 0.00282632 4.16357e-22)
(1.09763 0.00132247 2.24618e-22)
(1.10279 0.00432221 0)
(1.03513 0.0153224 0)
(0.552294 0.00901843 0)
(1.0263 0.00878472 0)
(1.10025 -0.00086897 -3.10058e-22)
(1.08462 0.00443875 0)
(1.07732 0.00908511 0)
(1.07725 0.0208473 0)
(1.13281 0.121586 0)
(-0.0250122 -0.0532838 4.89656e-20)
(1.13085 0.00713447 1.6855e-22)
(1.1022 0.0443583 0)
(1.33366 0.0407973 2.15725e-20)
(1.12004 -0.0105138 1.2366e-22)
(1.11146 0.0467567 -1.39084e-21)
(1.13528 -0.0580632 2.65949e-21)
(1.10173 0.014548 0)
(0.557725 -0.010258 1.18841e-21)
(1.0501 0.0440207 1.078e-20)
(1.21741 -0.0654203 0)
(1.11302 -0.012783 -2.04706e-22)
(1.14784 -0.00713885 1.17536e-21)
(0.59639 -0.0198495 -4.96374e-21)
(1.10528 0.0110601 2.6738e-21)
(1.11986 -0.0177883 -1.56831e-21)
(1.02361 0.00557789 0)
(1.20572 0.103901 -6.58382e-21)
(1.18733 0.0198863 -1.83866e-21)
(0.811868 0.0834017 9.40872e-21)
(0.910548 -0.0265158 0)
(-0.0216766 -0.0229216 0)
(0.974909 0.110891 -1.72691e-20)
(1.08829 -0.0166589 0)
(1.33848 -0.0960866 3.73162e-20)
(1.15425 0.0215929 4.03199e-22)
(1.10575 -0.00878926 1.50761e-21)
(1.15839 0.0149702 -9.73099e-22)
(1.37396 -0.0260455 1.24575e-19)
(1.02178 -0.328883 5.31598e-20)
(1.11086 -0.0311146 -1.98184e-22)
(0.93277 -0.00929604 0)
(0.959623 -0.0177759 0)
(0.897913 0.00154388 -2.04911e-20)
(1.31661 -0.078395 -5.84196e-20)
(1.11598 -0.0458446 0)
(0.727091 0.112971 1.0491e-20)
(0.397915 -0.0750067 0)
(0.891841 -0.0540802 3.61832e-21)
(0.89316 0.0965757 -1.20743e-20)
(0.798564 0.0303709 -8.12188e-22)
(1.16071 -0.0497141 0)
(1.19748 0.00681147 -4.70314e-22)
(1.17757 0.0130738 2.84351e-21)
(0.848515 -0.0159399 -4.47668e-21)
(1.13358 -0.0515033 -2.45155e-21)
(0.857545 0.0159864 0)
(1.09166 0.0735795 0)
(1.17837 -0.0866773 2.67698e-21)
(0.912047 -0.0510485 -3.65512e-21)
(1.20822 0.0176511 3.01275e-21)
(1.0949 -0.03106 -1.03127e-21)
(0.977856 -0.0224394 3.93568e-22)
(1.07948 -0.0222059 0)
(0.41661 -0.139421 1.42299e-20)
(1.3321 0.0986357 -2.35e-20)
(0.905711 0.0473153 -1.09172e-20)
(0.0934054 -0.16505 5.24917e-21)
(1.43207 -0.135497 2.83564e-20)
(0.842487 0.0331586 6.29704e-20)
(1.22817 -0.0791455 -2.77909e-21)
(1.09532 -0.034544 -2.84493e-22)
(-0.0484629 -0.144752 -8.34844e-21)
(0.998131 -0.0060567 0)
(1.03459 -0.0881891 -1.50149e-20)
(0.856918 -0.032944 -3.80207e-22)
(1.0761 -0.0508474 9.6195e-23)
(0.864555 0.00174129 -9.60771e-22)
(0.570146 -0.00797601 3.00859e-23)
(1.41969 -0.387284 -1.55392e-20)
(1.09043 0.0543734 0)
(1.03412 -0.000527426 -4.48187e-22)
(1.11305 0.0292783 -6.23208e-22)
(1.22713 -0.0525519 0)
(0.915412 -0.0482227 -5.49846e-21)
(1.11568 0.0554 8.81301e-22)
(0.776158 0.0456314 1.29418e-20)
(1.16054 -0.0544363 1.56396e-20)
(0.943951 -0.0606529 3.0727e-21)
(-0.036354 -0.09002 0)
(0.216698 0.0712777 -1.15858e-21)
(1.11041 0.0278449 0)
(0.936126 0.0186622 -4.60117e-21)
(0.933175 0.0470557 0)
(1.13 -0.00768779 -2.33164e-21)
(1.01642 0.0270656 0)
(1.15001 -0.0764169 0)
(1.40235 -0.119543 2.43499e-20)
(0.798503 -0.0915749 0)
(1.11672 -0.0256397 1.87765e-20)
(1.05582 -0.00173434 6.2847e-23)
(1.02824 0.0456704 7.48926e-22)
(1.31254 -0.048265 -2.10473e-20)
(1.24264 0.128831 -6.31143e-21)
(1.18993 -0.0246333 9.07731e-21)
(1.12655 0.0655595 0)
(1.16255 -0.0788717 0)
(1.09944 0.0686151 9.2584e-22)
(1.24254 -0.0328357 0)
(1.38937 0.212156 -2.45881e-20)
(0.787135 0.0382275 1.71498e-21)
(1.02682 0.0173117 1.87955e-20)
(1.24193 0.0343083 -4.03088e-22)
(-0.00948106 -0.031066 0)
(-0.0337348 -0.0900331 0)
(0.0791652 0.0557546 -4.47847e-20)
(-0.0361942 -0.134784 0)
(0.679485 0.0694027 -9.81584e-21)
(1.17417 0.0476772 -3.36892e-22)
(1.13108 -0.0710117 -7.55665e-22)
(1.22924 -0.149587 -6.22841e-21)
(1.23406 -0.0530507 0)
(0.758199 0.00198666 -3.1257e-22)
(1.14208 0.07351 0)
(1.08687 -0.00545029 3.36532e-22)
(0.503968 -0.11032 0)
(0.69656 0.0151232 -4.23348e-22)
(1.13536 0.0724582 0)
(1.12103 0.0300157 0)
(0.7361 0.109492 5.90076e-20)
(0.56663 0.019715 -1.55747e-21)
(1.00313 0.0411834 1.00768e-21)
(1.01405 0.0165943 -7.25933e-21)
(0.186673 -0.0978671 0)
(1.15367 -0.0102377 -1.95257e-20)
(1.22053 0.0446805 -6.8902e-21)
(1.15228 -0.0216833 1.36648e-21)
(0.641541 -0.0426674 1.0797e-20)
(-0.0476597 -0.117107 -1.00522e-19)
(1.1633 0.0744928 0)
(-0.0332332 0.0340813 0)
(1.19438 0.0578717 -2.11737e-21)
(0.474409 -0.0851886 -1.16194e-20)
(1.09924 0.0258547 -5.65533e-21)
(1.10129 -0.046818 0)
(1.12626 -0.0612146 3.3902e-22)
(1.3137 -0.23643 3.24132e-20)
(0.543412 -0.0526166 -1.00468e-20)
(1.14797 -0.045163 3.22998e-21)
(1.14837 -0.0884909 1.81975e-22)
(0.442124 -0.127434 2.89369e-20)
(1.18642 -0.109216 -4.35362e-21)
(1.12929 0.0361415 0)
(1.17134 0.0843345 0)
(1.18715 -0.0951256 6.98462e-21)
(1.18625 0.0586953 6.22708e-21)
(0.80401 -0.155408 -8.39692e-20)
(1.19453 -0.119658 -6.79823e-21)
(1.12565 0.0539997 -7.09752e-22)
(0.47462 -0.00569426 2.02261e-21)
(0.415964 0.0511499 -1.08946e-19)
(0.0284232 0.0329301 4.72617e-20)
(1.1682 0.185282 -6.51591e-21)
(1.24036 -0.499307 6.72494e-21)
(1.36686 0.0665078 -1.8817e-20)
(1.21792 -0.0681707 -8.27717e-21)
(0.940012 -0.238861 9.08064e-20)
(-0.283036 0.0517344 0)
(1.099 -0.00347957 -2.88367e-22)
(-0.131973 0.148049 -2.12319e-20)
(1.1863 0.0776556 1.83226e-21)
(1.18292 -0.0422817 3.76685e-21)
(1.07511 0.0399151 0)
(0.666519 -0.137396 0)
(1.17254 -0.0495027 0)
(1.25954 0.101394 1.88869e-22)
(1.25148 -0.0136439 -3.15089e-20)
(1.15621 -0.0577167 -7.49864e-21)
(0.550094 0.0115416 0)
(0.70148 0.00431344 0)
(0.705546 0.000390169 3.0538e-22)
(0.540052 -0.0114927 0)
(1.15044 0.0292577 0)
(1.02062 -0.0133971 1.98545e-20)
(0.449092 -0.23802 0)
(0.928991 -4.24895e-06 0)
(1.0673 -0.0064517 0)
(1.17171 0.186585 -4.31826e-21)
(1.24873 0.0361892 1.20656e-20)
(0.965379 -0.0311774 3.17312e-21)
(1.29932 -0.40458 -1.13987e-19)
(0.675446 -0.221624 1.10924e-20)
(1.25194 0.104471 2.62284e-21)
(1.19079 -0.0402481 0)
(-0.409325 0.0399811 0)
(-0.226289 0.0948179 0)
(1.17391 -0.0416278 -1.19374e-20)
(1.32716 -0.292475 -3.32115e-20)
(1.29792 0.0862329 0)
(1.07603 0.0650221 -2.11843e-21)
(0.455194 -0.0426213 0)
(1.51756 -0.167155 8.0411e-20)
(0.409043 0.513931 1.15403e-19)
(0.281855 -0.0542673 0)
(1.10416 -0.280239 1.22364e-19)
(0.30184 0.197686 0)
(-0.166951 -0.212694 1.6054e-20)
(1.30396 0.0858251 0)
(-0.162986 0.0558208 1.19635e-21)
(0.983427 -0.0495848 0)
(1.29221 -0.135492 -1.72122e-20)
(-0.128447 -0.0507832 -8.22328e-21)
(1.12402 -0.036364 -1.91023e-21)
(1.12874 -0.0342135 -8.48418e-21)
(0.577189 -0.524994 -8.90843e-20)
(1.13142 -0.0128802 -2.51187e-22)
(1.19623 -0.1273 3.85309e-22)
(1.17602 0.247366 -1.87121e-20)
(1.16432 -0.248194 -8.08934e-21)
(1.17112 -0.0204903 -2.03686e-21)
(-0.140362 0.0610126 -6.41992e-20)
(0.00329157 0.0543141 -7.06481e-21)
(1.31548 0.116963 1.40997e-21)
(1.05669 -0.0497234 0)
(0.59933 0.0541672 -2.30866e-21)
(1.40967 -0.446584 8.88023e-20)
(0.943227 -0.0837086 -6.4165e-20)
(1.40583 0.160048 7.17178e-20)
(1.07335 -0.0471138 -6.06119e-22)
(1.14364 -0.0722076 5.48401e-21)
(1.06336 -0.00643558 0)
(1.18039 -0.0176649 0)
(1.29305 -0.121941 8.74765e-21)
(1.08695 -0.0202374 -4.56769e-21)
(1.18416 -0.239115 8.94101e-21)
(1.0957 0.0494891 -1.67697e-21)
(1.43373 -0.00808796 -5.46882e-20)
(0.422232 0.0252031 0)
(1.18569 -0.121421 -2.58267e-21)
(1.29006 0.0806586 0)
(1.11731 0.0597968 7.35235e-23)
(1.14439 0.0244079 0)
(1.04586 -0.00801543 9.00437e-21)
(1.23787 0.0407911 1.79125e-20)
(1.10951 -0.0407851 0)
(0.0524187 -0.030017 1.63681e-19)
(0.884432 -0.21764 -7.12241e-20)
(1.32151 0.0295496 -3.54388e-20)
(-0.100386 -0.0757874 4.15746e-20)
(1.18762 0.033736 4.47363e-22)
(0.907154 -0.0199139 -2.17975e-21)
(-0.0979057 -0.0571005 -4.33505e-20)
(-0.0197336 -0.0248529 -2.66747e-20)
(1.0184 -0.0296188 0)
(-0.0304701 -0.0392227 0)
(1.19581 0.101265 0)
(0.112343 -0.111231 0)
(1.11694 -0.0333316 0)
(0.134738 0.0275055 0)
(1.11444 0.0483034 0)
(1.13722 0.10636 0)
(1.33739 0.081722 -4.47876e-22)
(0.579169 -0.287656 -2.2653e-20)
(-0.163609 0.0691792 0)
(1.14843 -0.095737 6.67813e-20)
(1.19527 0.0337059 5.05488e-22)
(1.32744 0.092092 0)
(-0.038499 -0.0424638 0)
(1.16432 0.0127943 6.23995e-21)
(1.17512 -0.00901688 -3.21541e-21)
(1.16261 0.386423 0)
(0.259822 -0.086617 6.43378e-20)
(1.12165 0.0632501 8.47581e-22)
(0.234501 -0.0521728 -5.53694e-20)
(-0.0595101 0.042014 -3.08412e-20)
(-0.0339461 0.0484099 8.00987e-20)
(0.291785 0.100765 7.53346e-21)
(1.04367 -0.0161033 2.0512e-21)
(1.13414 0.0588677 4.0811e-21)
(1.02458 -0.00852169 0)
(1.07235 -0.0684552 -1.82908e-20)
(1.22358 0.0518982 -1.29681e-20)
(-0.010139 -0.0469436 1.02674e-19)
(0.98153 -0.0731472 -5.63517e-20)
(0.748658 0.027651 5.30396e-21)
(1.1525 0.0276153 -1.88011e-21)
(0.0722108 -0.0319983 3.55748e-20)
(0.24494 -0.0387557 -5.00961e-20)
(0.40745 -0.0664171 -5.83335e-20)
(1.22756 0.0711522 -9.43833e-22)
(-0.0563684 -0.0393708 0)
(1.07475 0.110068 2.11041e-21)
(1.12594 -0.15862 8.01057e-21)
(1.13682 -0.185305 -7.72412e-21)
(1.27813 0.0510664 0)
(1.52175 -0.226842 7.90043e-20)
(1.07809 -0.00512092 -6.62677e-22)
(-0.0158649 -0.0522662 -3.54619e-20)
(0.252254 0.0739736 0)
(0.910904 -0.00750487 -6.96545e-22)
(1.12586 0.02501 -1.89454e-21)
(0.729964 -0.0379741 2.73002e-20)
(1.17065 0.0102165 -1.92683e-21)
(1.1171 0.0523286 0)
(1.14806 -0.172947 -1.55625e-20)
(-0.0622688 -0.0985207 -7.17325e-20)
(1.31587 -0.0152783 2.76967e-20)
(1.10149 0.174265 -8.74797e-21)
(1.09023 0.0515558 1.91793e-21)
(-0.042807 -0.0668015 1.64381e-20)
(-0.0209649 0.0213293 -6.09142e-20)
(0.796639 0.071545 0)
(0.761619 0.199408 0)
(1.15087 0.102584 -1.3669e-20)
(1.05141 0.0704513 1.09639e-20)
(1.07127 -0.00859409 0)
(0.556002 -0.0229744 5.73287e-20)
(0.710471 0.0844759 -1.09423e-20)
(1.09734 0.110203 0)
(1.08197 0.0566097 0)
(1.325 0.108465 0)
(1.13777 0.015529 0)
(1.16685 0.0894552 1.92851e-21)
(-0.0428786 0.0434588 3.36824e-20)
(1.1549 0.0204386 3.45698e-21)
(1.42149 -0.195992 -9.06078e-20)
(1.19523 0.0802292 -2.76777e-21)
(-0.0496669 0.142912 0)
(1.13935 -0.112727 0)
(0.709403 -0.00402821 -4.89181e-23)
(0.524216 0.00810685 -5.71453e-20)
(0.0690643 0.0358346 4.64723e-20)
(0.981774 0.000573536 5.18779e-22)
(0.745069 -0.274042 0)
(0.679463 -0.0924919 0)
(1.13461 0.05189 0)
(0.536102 0.509014 2.00032e-20)
(-0.0130689 -0.00168877 -2.92311e-20)
(1.102 0.0334242 -1.16117e-21)
(-0.021913 -0.0894858 6.76972e-20)
(1.1158 -0.0227902 1.05374e-21)
(1.16853 0.313823 3.56905e-20)
(1.11488 -0.0885074 5.70037e-21)
(0.260138 0.0539918 8.41485e-20)
(1.10627 0.111378 1.02463e-21)
(1.09395 -0.0890614 0)
(0.553147 0.268634 0)
(0.971549 -0.0406395 3.14235e-21)
(-0.1816 0.0246574 0)
(0.59588 0.0278537 3.80504e-22)
(0.606825 -0.420272 -3.41656e-21)
(0.234144 0.0486415 -1.09157e-19)
(1.12615 -0.229287 2.60949e-20)
(1.0349 0.360235 9.92418e-21)
(0.978953 0.016477 0)
(1.15907 -0.0133098 9.19932e-23)
(0.715762 0.00403155 0)
(0.986886 0.00859352 -3.77816e-22)
(0.437408 -0.0220317 0)
(0.711312 0.12348 0)
(0.999776 -0.023623 -3.79165e-22)
(1.43075 0.18018 -1.35568e-20)
(1.11496 -0.0260297 6.04371e-22)
(0.525043 -0.495636 0)
(1.1354 -0.155868 5.81325e-22)
(0.801113 0.372484 6.97231e-20)
(-0.0386825 0.021165 1.12853e-21)
(1.23944 -0.0107723 1.32785e-20)
(1.22409 0.0437805 -1.41313e-20)
(1.16591 -0.0396962 4.78766e-22)
(0.79126 0.00150014 6.54667e-22)
(0.06115 0.0180754 3.60568e-20)
(-0.0162359 -0.067399 -5.72699e-20)
(-0.1762 0.0453882 0)
(-0.210645 0.178978 0)
(1.19026 -0.619369 3.37205e-20)
(1.15927 -0.0309793 1.98756e-21)
(0.891408 -0.467216 -4.63578e-20)
(1.04111 0.0617903 -4.8745e-21)
(1.35408 0.203154 3.28123e-20)
(0.598694 0.416623 0)
(0.244464 0.410279 -1.1461e-19)
(0.592396 0.473697 0)
(-0.0546233 0.0820672 0)
(1.12714 -0.483642 0)
(-0.0436185 -0.0321921 -1.61099e-22)
(1.19675 -0.00770302 0)
(0.797389 0.125361 -8.0188e-21)
(0.589927 0.685632 2.00719e-20)
(1.26972 0.111433 4.31141e-21)
(-0.0320419 -0.12245 -1.1575e-19)
(0.546904 -0.0186691 9.60092e-21)
(0.445552 0.142913 -1.31313e-20)
(1.20586 0.100293 0)
(1.35123 0.357502 3.45254e-20)
(1.21531 0.562595 7.01459e-21)
(0.155543 -0.0149078 -2.15272e-20)
(0.979011 0.128767 3.03396e-20)
(0.928372 0.000907757 3.36788e-22)
(0.931878 0.00139595 -1.48221e-22)
(-0.0104956 -0.0383734 0)
(0.649995 -0.659914 -2.89233e-20)
(0.612521 0.194054 0)
(0.0876828 -0.12151 0)
(-0.04449 0.0427069 0)
(0.0113014 -0.132195 -4.40747e-20)
(1.2476 -0.000469148 -1.52269e-20)
(-0.0350026 0.0332353 0)
(-0.0292735 0.017059 0)
(1.45548 0.125474 -6.95219e-20)
(-0.0393379 -0.0934062 5.22485e-20)
(0.11394 0.229806 -1.00354e-19)
(0.379033 0.0151031 0)
(0.17043 -0.283522 7.95727e-20)
(1.09114 -0.242116 0)
(0.998937 -0.288233 0)
(0.0112571 -0.114194 1.09586e-19)
(1.15226 0.0396221 2.74738e-23)
(1.12085 0.340425 2.73054e-20)
(0.257243 0.0274218 4.4906e-20)
(0.405716 -0.521873 -3.41075e-20)
(1.2536 0.0901285 0)
(1.20136 0.195539 2.13075e-20)
(1.20658 0.213241 -2.6175e-20)
(0.101982 0.0829527 -2.31855e-20)
(-0.0623996 -0.0620876 0)
(1.07082 -0.0573033 -1.9116e-20)
(1.10516 -0.225577 -1.28635e-20)
(0.58475 -0.411294 0)
(1.09745 -0.151267 -2.38444e-20)
(-0.143791 0.143104 0)
(0.5645 0.0366593 0)
(1.42689 0.0422775 4.46918e-20)
(0.98504 -0.0152885 5.71285e-23)
(1.07051 0.73884 -1.65606e-20)
(0.226654 -0.383109 1.2718e-19)
(1.07643 -0.0150399 1.55325e-22)
(1.20724 0.0800429 1.13836e-21)
(-0.0460503 0.0200488 2.91694e-20)
(0.780983 0.727216 2.88024e-20)
(1.35432 -0.373853 -1.33047e-20)
(-0.105169 0.0238695 8.45584e-20)
(1.09402 0.0241197 0)
(0.120955 0.0366476 -6.84177e-21)
(0.901899 -0.638817 3.08156e-21)
(0.892784 0.636899 -1.81574e-20)
(0.547463 -0.0373838 -6.59508e-20)
(1.14864 -0.00396647 3.63428e-21)
(1.07802 -0.0850425 5.45974e-21)
(1.15208 0.0521187 -2.59117e-21)
(1.10377 0.122781 3.25636e-21)
(1.1338 -0.129106 0)
(0.891228 0.109582 1.38314e-20)
(0.878643 0.455779 0)
(1.25365 0.0707053 1.99757e-21)
(1.16675 0.117389 -1.40444e-21)
(0.743317 0.26237 0)
(0.512507 0.109037 1.04115e-19)
(0.8876 0.706494 -1.00982e-21)
(1.07385 0.28942 -2.09702e-20)
(1.04086 -0.00966987 9.72162e-21)
(0.413109 0.483987 0)
(1.30112 -0.477439 0)
(0.598025 0.0318141 5.35723e-21)
(1.25436 0.501701 0)
(-0.0235636 0.0442725 -4.11015e-20)
(1.28793 -0.418534 -1.46636e-20)
(1.1592 0.506906 0)
(0.45198 0.209604 1.67677e-19)
(1.11234 0.314654 -1.15823e-19)
(0.818433 -0.646856 -2.42697e-20)
(1.15625 0.0479264 -4.23718e-21)
(0.903083 0.150376 7.79679e-20)
(1.08543 0.169192 4.94633e-20)
(1.06363 0.699197 7.08352e-22)
(0.906702 -0.443335 6.20809e-20)
(1.41769 0.19617 3.81773e-20)
(1.13369 0.010185 1.97836e-22)
(0.00045912 -0.0656793 9.69887e-20)
(1.08624 -0.706821 3.11559e-20)
(0.874443 -0.725098 4.89169e-20)
(0.252718 -0.341527 0)
(0.972186 -0.14994 6.93244e-20)
(0.360649 0.299784 -4.3534e-19)
(-0.0743387 0.0375544 2.58409e-20)
(0.224282 0.0293254 2.11193e-20)
(0.676635 -0.0603625 -7.75579e-20)
(1.07342 0.525195 0)
(0.989585 0.220018 7.8174e-20)
(1.08906 0.0318344 2.77445e-21)
(0.905072 0.437265 -8.98945e-20)
(0.784975 -0.729582 -7.55753e-21)
(0.927206 0.0190237 -4.80098e-20)
(0.973174 0.485215 0)
(1.14063 0.068403 -7.08834e-21)
(1.38562 -0.51851 1.43265e-20)
(1.23179 -0.344297 9.60242e-21)
(-0.287881 0.177228 3.31832e-20)
(0.194589 -0.00534196 -1.79499e-20)
(0.975998 -0.120937 -5.67778e-20)
(0.349775 0.518249 0)
(0.914567 0.011881 3.82531e-20)
(1.14815 0.632674 7.68853e-20)
(-0.0408879 -0.0691049 1.53447e-19)
(-0.0667721 -0.00862671 -2.42061e-20)
(-0.0760776 -0.119495 4.25283e-20)
(1.10004 0.0247876 -3.61787e-21)
(1.13412 -0.463968 0)
(1.07112 -0.740441 -3.71646e-20)
(0.695855 0.343237 0)
(0.0475196 -0.0728357 -1.12102e-19)
(1.06585 -0.0204254 7.12463e-22)
(-0.0348034 -0.121125 -3.09477e-20)
(1.04668 0.0577591 -1.20845e-20)
(0.102562 0.0248084 5.3331e-20)
(0.830733 0.125198 0)
(1.37058 -0.008961 5.3459e-20)
(0.0289988 0.0233414 -2.39801e-20)
(-0.231878 0.134093 -3.94092e-20)
(-0.206823 0.115847 0)
(0.0774449 -0.0204269 0)
(1.33078 -0.00437922 -1.62006e-20)
(0.378181 -0.012321 1.60289e-19)
(1.27146 -0.731634 -2.79059e-20)
(0.879734 0.00185412 3.70731e-20)
(1.06841 0.250011 -2.91037e-20)
(0.370126 -0.565041 1.36373e-19)
(1.53251 0.286654 -3.28391e-20)
(0.0716497 -0.0849899 3.77323e-20)
(0.20704 0.297096 1.94291e-19)
(0.0957092 -0.0535849 -1.4097e-19)
(0.945291 -0.498232 -4.18899e-20)
(1.4417 0.389107 3.3802e-20)
(0.569771 -0.681983 4.68726e-20)
(1.10897 -0.0843422 -5.69287e-21)
(0.209414 -0.00100984 6.08912e-20)
(1.16624 0.290153 -4.59086e-20)
(0.657898 0.633168 -4.05875e-20)
(1.34188 -0.627514 0)
(1.40433 0.518017 3.25859e-20)
(1.0569 -0.533363 -1.2639e-20)
(1.37761 0.60403 -9.63016e-20)
(1.17595 0.0313577 0)
(-0.0499988 0.0467263 0)
(1.24248 0.725361 0)
(1.13687 0.0153849 -4.06394e-21)
(0.743865 -0.307896 -2.02344e-19)
(0.47652 -0.0901872 0)
(-0.0557575 0.0364692 -2.47289e-20)
(1.0218 -0.248282 9.20338e-20)
(-0.298923 0.121464 0)
(0.321211 0.0173134 1.21265e-20)
(1.13738 0.0345979 0)
(1.39863 0.277348 0)
(1.17995 0.0463616 4.53733e-21)
(0.362397 -0.300191 0)
(1.01291 0.14977 3.62687e-20)
(1.29489 0.288028 0)
(-0.0920339 0.00386926 -1.04132e-23)
(0.814125 -0.402986 0)
(1.50369 0.344007 -5.02381e-20)
(1.23429 0.367395 4.42723e-22)
(0.835697 0.639798 -9.77738e-21)
(1.00889 0.157912 -8.62468e-20)
(0.970408 -0.207867 -4.52015e-20)
(1.43965 0.298176 2.95335e-20)
(0.967089 0.0970851 0)
(0.563759 -0.0779221 0)
)
;

boundaryField
{
    FrontBack
    {
        type            empty;
    }
    Top
    {
        type            noSlip;
    }
    In
    {
        type            fixedValue;
        value           uniform (1 0 0);
    }
    Bottom
    {
        type            noSlip;
    }
    Out
    {
        type            zeroGradient;
    }
    circle
    {
        type            noSlip;
    }
}


// ************************************************************************* //
