/*--------------------------------*- C++ -*----------------------------------*\
| =========                 |                                                 |
| \\      /  F ield         | OpenFOAM: The Open Source CFD Toolbox           |
|  \\    /   O peration     | Version:  2412                                  |
|   \\  /    A nd           | Website:  www.openfoam.com                      |
|    \\/     M anipulation  |                                                 |
\*---------------------------------------------------------------------------*/
FoamFile
{
    version     2.0;
    format      ascii;
    arch        "LSB;label=32;scalar=64";
    class       volScalarField;
    location    "41.5";
    object      p;
}
// * * * * * * * * * * * * * * * * * * * * * * * * * * * * * * * * * * * * * //

dimensions      [0 2 -2 0 0 0 0];

internalField   nonuniform List<scalar> 
808
(
0.133981
0.0327897
-0.0314281
0.13354
-0.195906
0.0352772
0.0301349
0.0332842
-0.0904771
0.00483056
0.0121367
-0.10869
0.0306568
0.0295484
-0.390193
0.0282853
-0.430752
0.0309653
0.00503637
0.0291954
-0.00616703
0.366109
0.06465
0.019976
0.443456
-0.183856
-0.0318005
0.00833416
0.0358361
0.020207
0.02719
0.0389033
0.0279644
0.0193049
-0.0440241
0.627489
0.0257684
0.0245535
0.0336321
0.0204081
-0.0181743
-0.0316979
0.0369589
0.0317854
-0.155455
0.0806172
0.0268219
0.0323247
0.0262868
-0.124823
0.030937
0.039772
0.042636
0.0163085
-0.114935
0.024315
0.0111478
0.0157709
0.00669965
0.0229419
-0.315063
0.0263082
0.0387483
-0.119
0.0246096
0.0460878
-0.187354
0.0214398
0.0171838
-0.249095
0.0304172
-0.283743
0.0339217
0.0338144
0.202638
0.0205462
0.0126907
-0.116578
0.02535
0.29412
-0.126506
0.0227854
0.0389738
0.2844
0.0260443
-0.00627955
-0.324641
-0.140302
0.0441914
-0.245281
0.0576149
-0.0677373
0.241659
0.147721
0.038035
-0.131361
0.0158047
-0.114991
-0.0703327
-0.132535
0.0271914
0.0206638
0.0570254
-0.0013993
-0.0548653
0.0535558
-0.180307
0.00359088
0.0259451
0.0520549
-0.0504929
0.315866
0.0314992
0.0493735
0.024098
0.451453
0.0312867
-0.230291
0.0253555
0.0741558
-0.172309
0.0409144
0.0301154
0.0756024
0.100141
-0.0826008
0.124841
0.0480099
0.0538946
0.0627644
-0.167606
0.0290469
-0.0158441
0.106349
0.02997
0.0261768
0.0452297
0.014206
0.0352808
0.0284675
-0.365513
0.0646832
-0.0264766
0.0295041
-0.0598144
0.100347
0.111919
0.170102
0.056449
0.0265963
0.0293151
0.327002
0.0477678
0.526613
-0.355641
-0.123565
0.0297699
-0.229929
0.0200871
-0.135374
-0.285158
-0.356603
-0.21706
0.0361761
0.0585546
0.0254983
0.0394812
-0.218677
0.0285558
0.0269242
0.0568646
0.145952
0.0485384
0.141233
0.0296901
0.0865731
0.0643555
-0.108636
0.0336697
-0.313984
0.0299243
-0.181208
0.0344834
0.274472
-0.434218
0.110161
0.024416
-0.0942034
0.0317785
-0.0537536
-0.367918
-0.0337759
0.0267239
0.0996653
0.0351165
-0.361082
0.0273104
0.0391517
0.00471407
0.0683113
0.0835596
0.0325722
0.0275217
-0.292806
0.366473
-0.33123
-0.2856
0.0143492
-0.0341812
0.0308931
-0.0167883
-0.368949
-0.131706
0.0279143
-0.0684028
0.0305112
-0.290308
-0.076872
-0.0278146
0.0496277
-0.0421562
-0.127167
0.0363738
0.0348727
0.00814506
0.0283137
0.117345
-0.162746
0.0553331
0.0290537
0.108229
0.0319832
0.0355797
0.02226
-0.10817
-0.0214163
0.0120858
-0.00357036
-0.0298137
0.0138613
-0.00978717
-0.0132838
-0.00916333
0.00848251
-0.00418596
0.0132463
-0.00984002
-0.0076717
0.0013712
0.0851114
-0.284703
0.00900706
0.0199351
-0.0720254
0.023906
0.0229616
0.0459205
0.00348004
0.0334698
0.112381
0.084945
-0.0158812
0.012591
0.0346091
0.0103727
0.0290604
0.0357771
0.0709459
0.0314686
-0.023937
-0.0394036
-0.368445
0.259604
0.0139174
0.0304973
0.0240387
-0.00102468
0.0167172
-0.0982453
0.290971
0.0481484
-0.0482078
-8.27889e-05
0.102144
-0.0631312
0.0323248
0.00257128
0.0391923
0.00537384
0.0351762
0.0345455
0.0303191
0.0200207
0.00847239
0.0203052
0.0376151
-0.0484843
0.0466531
0.0797606
0.0272091
0.0229633
0.0360036
-0.0028678
0.00972998
-0.45818
-0.104294
-0.0380622
-0.055501
-0.124527
-0.36347
0.0673519
0.0362049
-0.288828
0.143547
0.170843
0.0308042
0.0322365
0.0487275
0.00671879
-0.186168
0.0479441
0.010033
0.0278857
0.00857348
-0.0015753
0.0399747
0.0222326
0.0241177
0.014084
-0.313499
-0.146264
0.0195845
-0.0564149
0.00577817
0.0181906
0.218729
0.0362839
-0.107466
0.548722
-0.0340823
0.00760187
0.0325682
0.00598164
-0.0703539
0.0210676
0.0338708
0.0505165
0.0630769
-0.020311
-0.309446
0.0295622
0.0945501
-0.0383642
-0.321912
-0.281177
-0.191724
-0.278084
-0.0374904
0.0379879
0.0485926
0.0652809
0.00367479
0.0139051
0.0508738
0.0176747
-0.455404
-0.0639818
0.052048
0.00792876
-0.178172
-0.0798153
-0.0088777
0.128223
-0.282039
-0.0145024
-0.0344439
-0.00299307
-0.088376
-0.302851
0.032513
-0.367719
0.0249162
-0.0603572
0.00599959
0.0271206
0.0330693
0.0878872
-0.307441
0.0227736
0.0406405
0.0269498
0.0486953
0.014106
0.0422022
0.0365014
0.0145902
0.083328
0.0585388
0.0232318
0.022229
-0.115624
-0.104361
0.0392677
0.0224865
-0.0870313
0.0129211
0.435449
-0.196393
-0.0133361
-0.227103
0.0262296
0.0385849
0.0313116
0.0640151
0.0178646
-0.0445179
-0.0332018
0.0287192
-0.000605307
-0.00447215
-0.00921848
-0.00898771
0.019461
0.131967
0.00788096
0.016725
0.0182792
-0.00418669
-0.0525114
0.0333924
-0.331162
0.0704798
0.071832
-0.0263159
-0.228281
-0.28672
0.0166577
-0.052448
-0.0660909
0.0382547
-0.0763916
-0.16938
0.176681
-0.283635
-0.40675
-0.236293
-0.183575
-0.100582
-0.188912
0.353903
0.0260132
-0.314042
0.0225318
-0.039003
0.595888
0.0224713
0.0371527
0.0204815
0.113575
0.0115438
-0.336213
-0.387232
0.0699472
0.0812737
0.0277106
-0.222097
-0.25193
-0.293239
0.028509
0.0290563
0.08638
0.00563379
0.0450512
0.0725108
0.138638
0.0393414
-0.101601
-0.352203
0.0525076
-0.084722
0.0343091
-1.846e-05
0.095732
-0.0592118
-0.0170926
-0.426032
0.458
-0.106952
-0.314919
-0.00817032
-0.055668
-0.33489
-0.333544
0.136583
-0.298335
-0.172303
0.868477
0.0243764
-0.329212
0.0245704
-0.170132
-0.0120356
-0.400753
-0.39275
-0.256169
0.0231847
-0.159749
-0.330193
-0.00948658
-0.00933691
0.0699695
-0.260382
0.0196564
-0.455848
-0.3804
-0.445808
-0.28193
-0.0837641
0.0206389
0.099081
0.142294
-0.0289065
-0.297775
0.316872
0.054624
0.0219948
-0.402396
-0.45472
-0.28549
0.00570552
-0.317591
0.0797549
0.0579044
0.0660124
-0.122346
-0.182794
0.0123984
-0.283192
-0.376973
0.00937058
0.0135907
-0.108096
-0.00295777
0.0234931
-0.341411
-0.291214
-0.0390316
0.0826399
0.0428481
-0.291306
-0.358458
-0.0638384
-0.291954
0.0242137
0.0896931
0.020247
-0.101153
-0.350593
0.0850624
0.0482196
-0.191229
0.0204663
0.041245
-0.385985
0.000322102
-0.209575
0.0494424
-0.489481
-0.0349705
-0.000646765
-0.424425
-0.520397
0.00861663
-0.418724
-0.418836
0.0180395
-0.131751
-0.344041
0.0208522
-0.286505
0.0373418
0.0552011
0.0845661
-0.417046
0.105017
-0.0696216
-0.519415
-0.0215238
-0.342905
0.0278262
-0.258736
-0.576185
0.119585
0.248365
0.44345
-0.0195898
0.00697945
-0.000872497
-0.310725
0.639118
0.0262602
-0.269012
0.0455532
-0.018775
0.101727
0.466818
-0.427306
-0.0240563
-0.0415307
0.0390061
0.0222778
-0.516712
-0.309079
-0.300108
-0.453032
-0.228132
0.0176006
-0.304769
0.0434569
-0.317494
-0.377197
0.474149
0.565206
-0.44078
0.137138
-0.335699
0.00265186
-0.221004
0.365827
-0.159517
-0.288505
-0.1517
-0.576174
-0.0321568
-0.240353
-0.0611501
-0.362335
-0.332829
0.00302017
0.00618627
-0.296492
0.477055
0.664652
-0.254034
-0.364396
-0.283887
-0.0531056
-0.3537
-0.35303
-0.232858
-0.28569
0.729973
-0.39119
0.764625
-0.371274
0.342743
-0.269008
0.00184869
0.151293
-0.565411
0.265009
-0.337329
-0.363454
-0.392202
0.862453
-0.324866
0.226007
0.168589
0.659905
0.143065
-0.515889
-0.360736
-0.0871449
0.0130279
0.0423818
0.554478
0.0256541
-0.0315963
-0.350482
0.0671487
-0.0908588
-0.170949
0.0132084
-0.538772
-0.109746
-0.215393
-0.336538
0.0110606
0.123122
0.0135614
0.0633146
0.127658
-0.386337
-0.420332
-0.0613127
0.00125168
-0.530458
-0.578694
0.133118
0.175632
0.108277
0.646127
-0.0493954
-0.338581
-0.440551
-0.34574
-0.0307094
0.0488872
0.75222
-0.514589
0.402897
0.0067809
-0.4924
0.138828
-0.126978
0.405479
-0.192301
0.0176606
-0.308458
-0.0373011
0.229383
0.827652
0.344682
0.743104
-0.270165
-0.347921
-0.380974
0.133784
0.256041
0.0553484
0.355933
0.177625
0.499324
0.248142
-0.075984
-0.152889
0.0483927
-0.464376
0.882576
0.418016
0.62081
0.510029
-0.321973
-0.273971
-0.34481
-0.30114
0.043805
-0.358918
0.136063
0.580802
-0.275103
0.0323918
-0.29095
0.172983
-0.373867
-0.426707
-0.0818269
-0.33832
-0.442753
-0.340536
-0.314515
-0.0516075
-0.383928
-0.0942493
-0.237351
0.12733
0.680027
-0.265101
-0.287619
0.811705
-0.289005
0.307418
-0.279282
0.424337
0.109442
-0.207765
-0.458543
0.410786
-0.234649
-0.374146
0.214669
-0.327926
-0.00103118
-0.34985
-0.168302
0.0114726
0.583648
0.783071
-0.351284
0.243308
-0.352689
0.81876
0.00948138
-0.363555
-0.00594672
0.775677
0.195388
-0.372685
-0.350804
0.472401
-0.252028
0.00783491
0.31815
0.243915
0.309647
-0.297518
-0.404463
0.68915
)
;

boundaryField
{
    FrontBack
    {
        type            empty;
    }
    Top
    {
        type            zeroGradient;
    }
    In
    {
        type            zeroGradient;
    }
    Bottom
    {
        type            zeroGradient;
    }
    Out
    {
        type            fixedValue;
        value           uniform 0;
    }
    circle
    {
        type            zeroGradient;
    }
}


// ************************************************************************* //
