/*--------------------------------*- C++ -*----------------------------------*\
| =========                 |                                                 |
| \\      /  F ield         | OpenFOAM: The Open Source CFD Toolbox           |
|  \\    /   O peration     | Version:  2412                                  |
|   \\  /    A nd           | Website:  www.openfoam.com                      |
|    \\/     M anipulation  |                                                 |
\*---------------------------------------------------------------------------*/
FoamFile
{
    version     2.0;
    format      ascii;
    arch        "LSB;label=32;scalar=64";
    class       volScalarField;
    location    "130";
    object      p;
}
// * * * * * * * * * * * * * * * * * * * * * * * * * * * * * * * * * * * * * //

dimensions      [0 2 -2 0 0 0 0];

internalField   nonuniform List<scalar> 
808
(
-0.0359819111387014
0.04505619671370915
-0.01178043321712448
0.03495080894346748
-0.3041225682466642
-0.05466128376905225
-0.01455604002426504
-0.02392855016430778
-0.2003606025124967
-0.08577174071433297
-0.009580946980838324
-0.2580493336700579
-0.03058330955942788
-0.01295657287245949
-0.1210146385107174
-0.01402960083689569
-0.139401484766514
-0.01357071997513367
-0.01238457153349042
-0.05703009841165006
-0.005896010687132726
0.1183872771291789
-0.06076487259180766
-0.0735129054066541
0.1766182620420846
-0.09940167200547192
-0.1554670466831529
-0.02030068891457342
-0.01735896847299247
-0.02597086458213427
-0.02016532408895395
-0.05995244533578922
-0.02292316341844415
-0.01682271916127089
-0.1012876520737623
0.3439909828689846
-0.03854590962391155
-0.01674771418812914
-0.02328001499297675
-0.02656271948518747
-0.09204622860039038
-0.1292187987882167
-0.05072352159808636
-0.02066870292844468
-0.05462928621432216
-0.03979376720608792
-0.01232737099396761
-0.1878366636271571
-0.0275921911802445
-0.2077143024279589
-0.0161415646786657
-0.06907541643125265
-0.05942834111433823
-0.01462457745897861
-0.1901370920930692
-0.02898560792235375
-0.01057879335713948
-0.01407144313749394
-0.1025501898290979
-0.04070820276298978
-0.09761669747945445
-0.1288009536154519
-0.01339765589533056
-0.1306776240060208
-0.01698641169825634
-0.05053620589148573
-0.167695147234249
-0.0356542978973808
-0.01484178965466303
-0.4465663815712231
-0.02698123822469804
-0.3083294372263351
-0.02201144914623132
-0.02041026479775748
-0.06756055515342262
-0.01734367351931876
-0.04356571500151957
-0.3587868804910682
-0.03546862595405228
0.04222041452585475
-0.09032982742284991
-0.0172762939137499
0.05682312667769293
0.04336946088408922
-0.01655154863403397
-0.05333729818788276
-0.5494880085996755
-0.2225690107214005
-0.05348464230727863
-0.1114130085079459
-0.05811222781239599
-0.1351728169662184
0.04083989338732318
-0.0237159825307557
-0.06047253175533526
-0.1203292903210433
-0.038490402479333
-0.05193623915123586
-0.1183894474607745
-0.1407210724162181
-0.05210834094691345
-0.04845302691563227
-0.05570147450404191
-0.04581988226970022
-0.05794520559873138
-0.07315458415449619
-0.04130663465639835
-0.01120062278848168
-0.04110944037062349
-0.1269168104378764
-0.05128738800290102
0.0834599643049449
-0.04315824945713482
-0.007980908738171411
-0.02781768157296683
0.1801048894463897
-0.03990840446900267
-0.2739192733635121
-0.02032265703076739
-0.05494532542001791
-0.02754641931914315
-0.04779008077613433
0.01256026405674828
-0.05018564604643206
-0.03391837428040453
-0.2139011446081209
-0.04301337070804132
-0.004985965686013902
-0.07787104248408871
-0.067467842426639
-0.1485201167580554
-0.02096607874839134
-0.07665602109444014
-0.04100104272656605
-0.02275186992476576
-0.01664450286126782
-0.006370314255385126
-0.007405753171844596
-0.05317726453558613
-0.05103116725539952
-0.2084690061117254
-0.05822040564171295
-0.008558596893480215
-0.02277574001891649
-0.1446485271401704
-0.002246402764142472
-0.07788792012279272
-0.02384995000697139
-0.001265350955495318
-0.01033453925846453
-0.03391135594667655
0.09569683126373112
-0.0398657530387131
0.2528109205650635
-0.2638844472614089
-0.1301784966327935
-0.03715287447285653
-0.09126481857635378
-0.009125488203464533
-0.1116289760740897
-0.1856952122601188
-0.2135302088598541
-0.1837697784708774
0.05533071423678548
-0.06176040655490893
-0.02029955504738581
-0.0679978332937466
-0.1733195890163937
-0.0239071168965266
-0.01856206318034685
-0.05341068651224357
-0.01791884089883969
-0.005882201990940774
-0.11072829066081
-0.0227923581749016
-0.04676522721401259
-0.06869722406317483
-0.1641611443426028
-0.03372616376684458
-0.3965253127970042
-0.017802527967246
-0.2222008771161064
-0.0455245667033493
0.0304511008183511
-0.1049680758632652
-0.01407779687874663
-0.04154185018637089
-0.1059933704337098
-0.01771557392255094
-0.09723072923991059
-0.2047440774932637
-0.07309444765413547
-0.02373062479264903
-0.04998751782383907
-0.04390127671770171
-0.2037590819891243
-0.02186472981311421
-0.01896590628322235
-0.01137281921447977
-0.05449662632336093
-0.05215064391378835
-0.0224407599598167
-0.02082163488300588
-0.2477039222173495
0.1280924094454143
-0.2002163919362346
-0.2084065120535446
-0.01177402348547319
-0.01161414866291812
-0.06771526323480376
-0.009460788177742754
-0.514728101980986
-0.1235032971297613
-0.01896984067205288
-0.001435495535792751
-0.02428051652523781
-0.2875245601718262
-0.273431979596357
-0.007135689602955004
-0.01774230219469255
-0.00218611827908554
-0.3438823071097102
-0.02827948648830608
-0.02917052435529497
-0.01251115141821698
-0.01975849837525311
0.05111153516671469
-0.1097270189186334
-0.01376167971841726
-0.02073558242034754
-0.04284207464781575
-0.01820331049020594
-0.01614963999674693
-0.0233624427970463
-0.066798696504924
-0.01185852230539285
-0.01906188795316819
-0.008548736012708431
-0.0008907197400203614
-0.02954515235381364
-0.001565196522693113
-0.002293004147871228
-0.006099351821706932
-0.02561156551360767
-0.00802059398244993
0.001590083586651439
-0.004144253457732317
0.001136582934243737
0.002498800064985439
-0.008504516330964282
-0.1417065779556206
-0.003030814621214355
-0.001168135302736274
-0.0483280223290725
-0.0214846988175111
-0.02489706736987014
-0.01435893271103424
-0.006085809601363683
-0.020886848005942
-0.03721990093205389
-0.01405488817673596
-0.01277542445554788
-0.01196580007253816
0.006542396719761134
-0.01021589273985453
-0.01212617892742291
-0.0112560146294938
-0.01072470316398913
-0.01003207265631071
-0.01134839395016181
-0.01412283790848513
-0.3108193442235013
0.06118311363821376
-0.0153376191094198
-0.01674753387174737
-0.01302917610810144
-0.01241897712262746
-0.008712858806493601
-0.09825050418074359
0.008908205572605086
-0.01381760373026654
-0.01476513167071177
-0.01082109624688369
-0.05341702619277644
-0.009689137533451108
-0.01389728189560686
-0.009185913606737352
-0.0008521081475791581
-0.009708060626345518
-0.01085661123426612
-0.02488508424384047
-0.01628401051900615
-0.01192923115350389
-0.01331075953438045
-0.008109209243481713
-0.01297682928263755
-0.01152425607350674
-0.0571013226346504
-0.01291313240339966
-0.01144639065701341
-0.008672032069381193
-0.01488657320425092
-0.01402581322399394
-0.01574099294380018
-1.381194029557415
-0.09813416996123217
-0.01300622218744023
0.02306929720336638
-0.1660265164404391
-0.09300283834776833
-0.01133709214497296
-0.01407042904458677
-0.2565455686830694
-0.03098208407297388
-0.0206369791474093
-0.01088641682787474
-0.01968141568652614
-0.01107583072130305
-0.03068713338054397
-0.4164174632296562
-0.01224844272239079
-0.01409881708628145
-0.004877348585514908
-0.01052227441671219
-0.009539048124165268
-0.01433174377954356
-0.009354681948181568
-0.02613176183961344
-0.0112687305955354
-0.1607303589393481
0.0174673034275266
-0.007754018091068337
0.003053675499148889
0.01311883635054911
-0.04721390500540967
0.03007182279489762
-0.01283321608247533
-0.1361157865534034
0.2819438923206273
-0.007307488734110862
-0.01314458888222463
-0.008418363456661382
-0.03322429407478171
-0.1220950709270868
-0.01307163320085193
-0.01236595037879191
-0.01699578540411448
-0.01359421391828577
-0.04094356638765308
-0.2134311818293787
-0.01153100249327731
-0.04099935699002816
-0.03993887167996945
-0.1649378308479276
-0.1653740984610465
-0.1431590729150896
-0.2580508580435473
-0.007134428048121516
-0.02129103155725214
-0.0144210968889745
-0.01275720916638449
-0.03280648496895981
-0.0243825972420886
-0.0144638844991884
-0.01504266070094359
-1.084101691784857
-0.005328444519604993
-0.0136907491236535
-0.01845590353034959
-0.01900811547082078
0.002527682868027705
-0.01404830327023366
-0.02801316081578699
-0.1657230760003031
-0.01358523476954419
-0.02211098891416419
-0.01387388419241129
0.001575922322609043
-0.1793806488643061
-0.01334833215385821
-0.1422253819346129
-0.01603202387490504
0.009190030652402483
-0.01456656380089745
-0.02306322433639519
-0.01571336616677651
0.004939230030860369
-0.279193227716935
-0.02546488210293054
-0.01604713668936261
-0.005715160785300035
-0.009357827523811169
-0.0306121369717124
-0.01436660027191377
-0.02040521306508488
-0.02135568100557346
0.01163391418726319
-0.1013883498338315
-0.02214640037433019
0.009201217625019149
-0.05041904539657962
0.1568256644678211
-0.1024900368617715
-0.3224913718130664
-0.03043068979433829
-0.02539556755705146
0.1487980018794941
0.08625030553333707
-0.003266621431209924
0.04993371274960224
-0.01567195102478234
-0.01467437777050067
0.002225921321941632
0.01205348434176791
-0.06729191279311873
-0.005532426941999527
-0.05774563639239876
-0.02223535738990198
-0.01571164990271555
-0.03652619519937673
-0.03291802918438011
-0.006642034534770153
-0.0149763988152462
-0.03949760409639719
0.03716640050615718
-0.03887802619986973
-0.01352945375572417
-0.1158706964472852
-0.03196707245205737
-0.03841221642354548
-0.6792053886744642
0.0183294935029107
-0.0109907621324117
-0.005296660005588118
0.1614582497349846
-0.08404019642503061
-0.03492819052961136
-0.2478861350053726
-0.01656493968900038
-0.01661110793053307
0.06071744082805904
-0.1856902012276499
-0.226020504680194
-0.1987879442068419
-0.6883222705458756
0.005990024463709012
-0.01772262515352607
-0.01648406311453445
-0.0786879952777946
0.1176029298028728
-0.02120224065372532
-0.2476806506284073
-0.03487940777894079
-0.006436408539673769
0.2766640117193772
-0.01128503780498733
-0.09419965920363049
-0.1483200977199713
-0.004779972943969771
-0.04032560530198539
-0.04694892220720479
-0.2065223530134204
-0.008894723813430145
-0.04244981984594123
-0.00255034559061117
-0.552602780556256
-0.2010637519041276
-0.175109521377088
-0.02269975581269556
-0.006845839962740083
-0.05968425707368619
-0.05844421328803589
-0.0149929911918114
-0.06727282542619377
0.002927372788078686
-0.01838435985122645
-0.09528447385331011
-0.2659591886578564
-0.007718575721783506
-0.02627456326343582
-0.02210890909981102
-0.07394199999045638
-0.09144267720742963
-0.08751017578398751
-0.01157591983888016
-0.9294130468462766
0.1604304629541538
-0.07974426923170434
-0.2582775402108046
-0.04270013266584488
-0.01041979128602902
-0.2507423424710117
-0.1825578679719629
-0.03354206465758653
-0.1271191358966121
-0.01870449200130515
0.5625391869483148
-0.0237695889830278
-0.229638516243451
-0.0262505927014563
-0.005295821666019464
-0.01186463230852851
-1.256448638067702
-0.1840238711222052
-0.234865785031144
0.005421626198074189
-0.03681491618945845
-0.2529892076715749
-0.06517541454621066
-0.05080698052055961
-0.1412384795179524
-0.193090693549796
-0.06749644337053994
-1.232718359187035
-0.1434209041442821
-0.5176561851952536
0.07846260452714082
-0.007048529241029092
-0.02202966984421584
-0.04228505166798961
-0.04102066055427173
-0.02882469554215578
-0.1320312114158747
0.07958636000063135
-0.002955626084283468
-0.009714588805759403
-0.5821424339321184
-0.8664472673964202
-0.1872017539849764
-0.008122441442391898
-0.1373513546509156
0.001141507803602454
-0.000745243625535789
-0.00189765493027953
-0.05988831972231461
-0.2399736726154834
-0.01343090107362432
-0.1242212048694467
-0.1547472465813131
-0.01323637705602937
-0.03602548559461513
0.02144995326850993
-0.05709792361085053
-0.06937192338779417
-0.5046804462202787
-0.244295684426264
-0.08120216262740421
-0.07206357413164233
-0.01994584476027843
-0.1227624783894748
-0.1529450585145063
-0.07504340465494418
0.02439412568739624
-0.0839833675921894
-0.04771496678701834
-0.01491151328819589
-0.1077697577750646
-0.271197508507494
-0.05636682940865776
-0.01854116834816708
0.0007953800638589174
-0.01002639902344006
-0.01115967423162632
-0.2168453483579363
-0.01505578232292221
-0.2233865394443428
-0.01041147049147694
-0.06546762477996419
-0.003654096126566345
-0.02319032362259877
-0.3760230570881545
-0.9057388098025723
-0.01133247254426255
-1.051784809783962
-0.6156346697335171
-0.01071210536011339
-0.6535866769118563
-0.1750305724230153
-0.005705295856990627
-0.1310869854289737
-0.01705459811422048
-0.1210564979555937
-0.06778545746227405
-0.07574490474568131
-0.005145962709516142
-0.002667113932867545
-1.333663644664698
-0.01109238594673058
-0.1861254141176397
0.0005120696128453507
-1.015037218357445
-1.229433812966416
-0.08214228587529913
0.02031556849581584
0.1642876870547026
-0.004732294786931381
-0.02303291226538944
-0.004228461239625971
-0.2537835854469022
0.3662566272139489
-0.04070304648576149
-0.2097517140555147
-0.01491990606352921
-0.6584541423104421
-0.07556112790202504
0.1916017155653485
-0.2829569429039205
-0.04965812418738618
-0.06851552088683112
-0.01588601759736457
-0.02174262656307057
-0.5727313814609049
-0.1439383828079199
-0.08564342907355871
-0.1283382601985624
-0.558121443721167
-0.04401636396402268
-0.9109613109175775
-0.0002437168364402853
-0.2367036486284945
-1.045388271431609
0.169582921714796
0.2925863427709073
-0.1828701325240681
-0.194139489102581
-0.2060740643946375
-0.06842531877292027
0.02294920972262811
0.0501373160002676
0.004099958850091318
-0.1662775203424305
0.02539664249006655
-1.351935188412712
-0.08478735211394024
-0.4714262898288407
-0.3285796733660794
-0.2027774581478097
-0.1751974877052973
-0.01691512799024376
-0.01545736282487654
-0.1065139309992271
0.1702898087141415
0.3858744796597323
-0.2193095631749971
-0.1405299506051133
-0.2406338150568146
-0.06226850837025889
-0.1502825191443433
-0.1619715341774507
-0.1251478459857809
-0.1222638911099389
0.4670839237442617
-0.2676664868457885
0.4303253308398485
-0.6016174143862563
0.07014188647743749
-0.2052987389416768
-0.06579036774408516
-0.07345070056439904
-0.874983104014792
-0.2225463847497205
-0.1891617525873227
-0.3451158328787851
-0.455758901665846
0.5707397934324805
-0.2050460736551786
-0.00021662463138448
-0.07130173033738857
0.3430579258908877
-0.03799120133826775
-0.1299301638557999
-0.1782291015729852
-0.06360451820848298
-0.01652407046419699
-0.1933497414194134
0.1924674433667096
-0.01279090243395448
-0.09576138188504063
-0.1674110722012814
-0.3128730885603414
-0.3146423847759852
-0.06444764896114571
-0.01028178894840727
-0.07690139269905362
-0.6573531729202056
-0.6669441302054266
-0.3396096116724071
-0.05741538142643455
-0.05238493212974023
-0.0254991776572977
-0.06711846171327406
-0.05836077489731293
-0.3570869187861113
-0.9539097594217932
-0.01014852810189771
-0.08245813116742255
-1.133945761920304
-1.028111018647135
-0.1035300038195683
-0.03796884643606974
-0.07039103260222052
0.3911904918601472
-0.3457175233127296
-0.0507556626806286
-0.5959897205685373
-0.122582140720895
-0.2542862147576678
-0.2088726099423654
0.4744494426625261
-0.625080304019876
0.07242269743931871
-0.02962627607577044
-0.5552139192967469
-0.05093829240865928
-0.3593001991394676
0.1061808470498445
-0.1892375461267032
-0.05949372694308788
-0.1380027428715779
-0.3639887888365019
-0.08930726796983292
0.513917130715299
0.0849917405679035
0.4713810832555726
-0.1080930101216175
-0.1985018747875675
-0.5240775260922628
-0.1295302423014305
0.02736575383123585
-0.05312909526384953
0.1034835610866739
-0.3092887662842813
0.236187760558568
0.009285233227815375
-0.003242463366859931
-0.5154873797541931
-0.1866266790984963
-0.08423133592993205
0.5814417886938998
0.1381614398272134
0.3466748299153658
0.2258775138385085
-0.5588668482799213
-0.2076498142296336
-0.2204180628914633
-0.2382010922863508
-0.05991334088192901
-0.6970240992710727
-0.1952700348288281
0.3066352808134697
-0.2054530890808194
-0.01113609504110526
-0.1733175951379044
-0.009012449327560026
-0.156565872662967
-0.4325638153147247
-0.07683705955072564
-0.1966090326011744
-0.07138354003762583
-0.08939386113492356
-0.145830793107896
-0.0735436889185373
-0.4566637918479171
-0.4169828808166698
-0.02690063830375047
-0.07374415757303805
0.3263117418526113
-0.245499964131545
-0.1856438570826992
0.5259300042205318
-0.2085647182131177
0.01714257601848302
-0.4472047500347968
0.04552021708590998
-0.06260379657697582
-0.1509479592727492
-0.579948312220247
0.1625533117355
-0.583071483490858
-0.5316169116527103
-0.1068043023435588
-0.5047681475195899
-0.03748136708294637
-0.1400568143323992
-0.4078540976383561
-0.01633850246956219
0.2860986431838738
0.4894300659841272
-0.157518632514088
-0.008699631687723922
-0.07163405131150957
0.5254032890972798
-0.03353846604767177
-0.4365452430378213
-0.03282846375395976
0.4602187370022638
-0.01429792309564954
-0.5406590191815014
-0.24497700085364
0.1753565388655507
-0.3083310683358417
-0.1773707272453229
0.05241069315012295
0.03410390956559817
0.05382327399036931
-0.2971644492553846
-0.1569962975662581
0.4127568200186298
)
;

boundaryField
{
    FrontBack
    {
        type            empty;
    }
    Top
    {
        type            zeroGradient;
    }
    In
    {
        type            zeroGradient;
    }
    Bottom
    {
        type            zeroGradient;
    }
    Out
    {
        type            fixedValue;
        value           uniform 0;
    }
    circle
    {
        type            zeroGradient;
    }
}


// ************************************************************************* //
