/*--------------------------------*- C++ -*----------------------------------*\
| =========                 |                                                 |
| \\      /  F ield         | OpenFOAM: The Open Source CFD Toolbox           |
|  \\    /   O peration     | Version:  2412                                  |
|   \\  /    A nd           | Website:  www.openfoam.com                      |
|    \\/     M anipulation  |                                                 |
\*---------------------------------------------------------------------------*/
FoamFile
{
    version     2.0;
    format      ascii;
    arch        "LSB;label=32;scalar=64";
    class       surfaceScalarField;
    location    "1124";
    object      phi;
}
// * * * * * * * * * * * * * * * * * * * * * * * * * * * * * * * * * * * * * //

dimensions      [0 3 -1 0 0 0 0];

oriented        oriented;

internalField   nonuniform List<scalar> 
1171
(
-0.9279387477104041
0.9279387476774578
0.7873345592910819
-1.098863466160166
0.311528907321945
-0.194038970376459
-0.7656748887830426
0.9597138588572407
0.07206126489416573
-0.1168773266954272
-0.2118873917431377
0.3287647168587919
-0.7873345698967847
0.06940264658244191
0.7179319233361234
0.8113208611628379
-0.1775244220853271
-0.6337964393253394
0.8744192305705007
-1.04370861644498
0.1692893859060108
-0.284967766603859
-0.09737784001653746
0.3823456070716622
-0.03586320578842851
0.5485423987173998
-0.512679193005758
-0.5034040291410835
0.8259527013362393
-0.322548671882019
-0.4018450962471943
1.045952996618184
-0.1715337688202468
0.3951974705573666
0.0475940928580566
-0.4427915661912477
1.046312278055316
-0.0003592830466569502
0.4446952609053695
-0.0494977802705337
1.05697413450187
-0.01066185441460793
0.5775168185502297
-0.7715557922506869
-0.7244775915014884
0.5571401306931012
0.16733746065029
0.22185029384643
-0.7252543192878215
0.5505910132154432
-0.922842242077838
0.3722512277448869
-1.094161220825339
0.6863728146766085
0.4077884062330394
-0.5953951421608877
0.5595319377232539
0.0183104260686914
-0.257107169455729
0.238796742742183
-0.02451275369888373
-0.5215133466032752
0.5460260983839025
0.4001015833920868
-0.4974794240969781
-0.9187681007076793
0.9413938686057439
-0.02262576780675618
1.067555669569729
-0.0105815353228586
0.9351127552103273
-1.116881042599333
0.181768287205611
1.067151904401602
0.0004037675357484376
-0.6643890437768428
-0.06008855051072215
1.262243093823172
-0.8643128768205602
-0.3979302170400528
0.1483838074385736
-0.1088831577900721
-0.326309474058821
0.4351926323322865
-0.2857604954269773
0.1909288986879394
0.09483159714371389
-0.5834392263180553
-0.5154242316086384
1.014040117906766
-0.07892736272189996
0.009950106131054098
0.8254314475307425
-0.8353815535228037
0.5718824728656795
0.6903606155463023
0.4396592310488087
-0.03018253735574058
0.4302841199423444
-0.8076709214254751
-0.1025690546497122
0.9102399759062574
0.5025831669747968
0.2536791728218531
-0.7562623397270608
0.004619356543437204
0.5278358317445605
-0.5324551896008821
-0.4898482353011102
-0.6043129868352901
-0.4228828965502544
-0.6939981478367154
-0.02717385984586434
0.2700485422603778
-0.2428746810970433
-0.9247866762264472
-0.005133012327116639
0.9299196886858978
0.3082469530920132
0.07409865080603847
0.7623931220434201
0.04892775002613655
-0.5331454840050374
-0.06224965843520063
0.04630692394418334
-0.8539778467441367
0.07530269353077329
0.8625564822418027
-0.9378591756736931
-0.3473030780859385
-0.04150773417844029
0.3888108130742294
-0.6823146291367722
-0.242472049798917
-0.6315234916496199
0.7068261865088075
0.6095573764357145
0.2163953269844232
-0.5428617336142861
0.9460936765604544
-0.7793991740342197
-0.166694502385499
0.02227335836536893
-0.01797379407908768
-0.004299565897863363
-0.402969573731778
-0.0945098524618285
-0.2414075824088048
0.8509649630770829
0.0461471460619105
0.3354038775340986
-0.3815510228044193
-0.4601848749199363
0.9627680429637359
0.6801223797522733
-0.7826914363284122
0.3197438887785745
-0.01745952925811476
-0.30228435742465
0.9306915034346379
-0.9306915034003058
-0.7827335383852055
0.1106195951587715
-0.3225069847265403
-0.7500394280170893
0.7599895330121865
-0.0901095107975427
-0.1429734523258644
0.233082964456225
0.8650049641923141
-0.03957351947725974
1.054240420976158
-0.8005612471675424
0.1859431080360212
-0.3154110506190387
0.1294679419534682
0.8594437889224582
-0.09705066600566263
-0.6118454152505609
-0.03921223863679915
0.6510576539485332
0.1238580490273223
-0.2312201166519636
0.1073620663571021
0.8056961925722776
-0.9832206051314658
-0.435523113957996
0.329704204933049
0.1058189078081089
0.5312778806849247
-0.5557906255787615
1.022078884981706
-0.4562361315047281
-0.5658427533847554
0.599195992922478
-0.7193728536799231
0.06683513403516028
0.6525377199357099
0.1031814524651912
0.5704665339954655
0.05493222650829877
-0.6253987607805725
0.1940424365594469
-0.08342284246009973
-0.4933058408444039
0.1460027641716799
0.05033970051798246
-0.8868431469743487
0.8365034463369644
-0.4739192387789202
-0.7134982544781346
0.04910921052328177
0.43681786984564
-0.00653374601243583
0.2998318782206165
-0.8552337021650166
0.555401823872438
0.415711836590538
0.5842881632301478
0.5605123435951623
-0.5142054203357056
-0.3658910364201731
0.03462735813755994
0.3312636820445843
0.6813829756772011
0.2493085232799035
-0.5658099483202456
0.5704293025390393
0.1105083858192904
0.8750988478872604
0.01021817537298028
-0.6220635953345405
-0.7493292942361964
0.799668994607725
0.5312542914380431
0.07091150011637069
0.3019626474893489
-0.3728741480433112
-0.1676050331595388
0.4414152319319716
0.08642061042897191
0.8765053673704174
-0.7978542418871698
-0.07865112553307037
0.6354191077385107
0.310674566700194
-0.4301434377653865
0.575321839923856
-0.5044103471111674
0.417212684579157
0.1333783283284922
-0.04689552724084468
-0.5911390058507172
-0.1375512466981948
0.7286902524751372
-0.1497272318691297
-0.7809642763764821
-0.6110134075250852
0.3607941590168938
0.2502192500271191
0.6222580050918556
-0.6120398308466289
0.2386552036140042
1.011335522493434
0.042904899726308
-0.7493292933274622
0.2263526941432809
-0.2040793261824176
0.6801223772138013
0.8020679723116921
-0.8020679721514168
0.8377339321469602
-0.8333398019278462
-0.004394130290806943
-0.4453905590598685
0.8611023968694635
-0.1475919609168433
-0.3457138812884927
0.7347017507743018
-0.6684506150218555
-0.06625113569077699
-0.7312520391543621
0.1401130342737202
0.1386614238415826
-0.6718069090281148
0.7826914343294448
-0.950296467425635
-0.3657480310394343
0.2906926151786604
0.07505542084625062
0.1459668227751659
-1.009550019019202
0.8635831961861007
0.4810413126106882
-0.0413820814468328
-0.308196443057021
0.5865028597962707
-0.2783064169659447
-0.7383237649056712
0.8842905851966054
-0.1571411748167862
0.7341655973083097
-0.8412553342934874
0.1070897373115056
0.9773513290663473
-0.5418893766500028
-0.4354619522300651
0.7551724443862801
-0.06492346880282565
-0.03332800615695712
0.1876831620776268
-0.1543551559149191
-0.7757479143540588
-0.8463738243417165
0.08069892821094524
-0.7500394296579211
0.5139614838820048
-0.555469211392463
0.09027139262265957
0.7199316962955299
-0.8102030890520129
0.7537234223827236
0.1742153301468296
0.502877199334728
0.497122800696387
-0.05051229609717073
-0.6067936414391144
0.6573059361254375
0.8823452519578638
-0.005839880131893887
-0.7551724444144929
0.7996689992039649
0.1909861330912421
-0.4480932982683099
0.02067482396304359
0.001749802542657545
-0.02242463148072422
0.5890211842320434
-0.4384806497698998
-0.1505405353681517
0.7179319291371316
0.01357091308752814
-0.112208227354854
0.4371142599539523
0.1519069137469003
-0.01419284064239371
-0.005589462416004594
0.01978230270587645
-0.033225636222014
-0.0001023792781282341
0.2431199654442592
-0.2605794908340225
-0.9592091478491356
0.001785500868705928
-0.1595401486452928
-0.1226280685580498
0.09453812975966087
0.7213604614127189
0.7290544611560117
-0.1447662967596292
0.6624297144777238
-0.5721583227027986
-0.2117690962751238
0.3977122020532639
0.695418867435266
0.02251306175009308
0.2416090009781551
-1.074948798545165
-0.9502964701889483
0.3017132036022601
0.7599895310339777
-0.2086026007319202
0.06562915383205278
-0.723145961678452
0.9099654870220766
-0.1868195252276226
0.4161346225184749
-0.02732380112313541
0.7715799793368777
0.2806271497732034
0.3717560868815993
0.07293916866880315
-0.6586878758618299
0.6586878758828942
0.2146678171084054
0.6955721551038707
-0.05488617502329299
0.3902900435412078
0.3803064449934471
-0.01502380218263928
0.03569862659673134
0.4494781271006574
0.0315631851502265
-0.7383237677233044
0.5341389145793689
0.2005628354898548
0.3062919340440641
-0.118608760681243
-0.6954188689052738
0.1801254264514222
0.7298400616080072
-0.01018349215202922
-0.8137118606530553
0.8238953527840447
0.6962667522735597
-0.7921121698178106
0.09584541739022731
-0.7537234234018145
-0.149776497640903
0.2108968635011534
-0.06112036504617854
0.07715775931167018
-0.1799659315523871
-0.1121454016676137
0.2921113308607489
-0.008659550501908243
-0.005533302645915314
0.7065073583113445
-0.7166908522786565
0.8845051941935407
0.0752086586805859
-0.3137164042375721
-0.5183122108387247
0.83202861505398
0.1028893662896632
-0.1028893708009515
0.3253199633870055
0.4769969029423887
0.6127190410707972
-1.089715943910136
-0.1941467835975236
-0.5856535475547838
0.7798003311127341
0.01258991193056854
0.2204930571580596
0.3773275968857597
-0.2534695450034739
1.012701059447457
-0.5357041554992886
0.6641454387599153
0.9941864052891909
-0.3814673633702533
0.2297356301542357
0.8842905842560274
0.7127568151186731
0.213662395974431
0.727731475377293
-0.7809642791557382
0.3413121299108071
-0.2771291538612213
0.2452836847528563
0.03184547431697746
0.8490977835667677
-0.01444705885616277
-0.8346507251100633
-0.7020949635832857
0.7024987326108849
0.5546094420189864
-0.7020949617701913
-0.7127568150875544
0.7024987339703709
-0.03453208420166497
0.9040942280756696
-0.01958903411467308
-0.6813829707391699
0.6123488476270261
0.06903412313523008
0.538882640346087
0.5373362400424806
-1.076218880441272
0.4922665255687569
0.5204345336830021
0.5432884838078129
0.4598621647583266
-1.003150648608264
0.4988343897999223
0.4953520148815976
0.6123488443866686
-0.5255860720570139
-0.4652549097559092
-0.5561501751640524
-0.5196651383540172
-0.1213236384843362
-0.01225903452768896
0.01225903572471794
0.5120964174263088
0.5230316302206782
-1.042696768674882
0.5755678965785572
-0.2736052583695683
-0.8852282394750224
0.3433388604019467
-0.6329016489012393
0.3904295982109322
0.0017771473725085
-0.8308067398778751
0.8290295926906937
0.4208580124009476
-0.01775325168308004
0.8668510347536094
-0.9452398946320617
-0.8350385915265767
0.05579241571271364
0.7792461760653951
0.5579476248998295
-0.4373813126322983
-0.1205663126048485
0.6499482654157429
-0.7288756305760703
0.8839771359828978
-0.8323936758336224
-0.0515834597783743
-0.0091701529804826
-0.7886840869945403
-0.1097728096076973
0.7152518148875829
-0.6054790052847794
-0.9364984504113938
0.9273283002060433
-0.7323299491441605
0.6913953227463037
0.04093462634716031
-0.8076540923972689
0.03671639253917664
0.7709376999621975
0.06162523148503214
0.04126413724048418
0.433210210062666
0.06126275058721391
-0.8507381139754626
0.7894753633232598
-0.6423172585301264
0.5918049592414494
0.8908376438489229
0.07003361953732189
-0.9608712632765727
0.05579905221706204
-0.04758570244198503
0.3788493902961672
-0.3812107530539908
0.06579969830917835
0.8421883797110368
-0.840411228469953
-0.7324454314387647
-0.8085671011094016
0.01988301631931242
-0.1653784098169002
-0.8518842137806476
0.01949054309343342
0.6252402123748284
0.03718950049153857
0.02732174372704875
0.5306258837037929
-0.8071295921805557
0.8438459871335032
0.5658427492469672
-0.8485599879857894
-0.8664648308088637
0.03762939628356271
-0.03964882162910984
0.8376668753263028
-0.7980180536106396
-0.02285461820291788
-0.7720942529760241
0.5443505269009223
0.1519162191111274
-0.03053728649087664
0.8973883225010511
0.9831207165271227
0.8613196428230488
-0.8418290968965452
0.1473354546754812
-0.1473354556936381
-0.1186763538564724
-0.4809922168373717
0.0436109025231958
0.271042639539216
0.03067056445892741
0.3853270015578764
0.8745337053637806
0.002830287293752476
-0.01148983335579697
0.6586174354258857
0.3413825645828347
0.78350436071667
-0.5834392237833784
-0.7780481836964261
-0.8124651113728818
-0.679872970479298
0.6798729705091013
-0.1677359567788124
-0.1547710354445112
0.6015622763737818
-0.812087207093747
0.2105249307596288
-0.4936960411006419
-0.5689962922773292
0.2782388192753438
-0.9722369651805869
-0.9014943519986934
0.8499108957114587
-0.816885348258693
0.8367683671007754
0.6486727695009208
0.1344595222850909
-0.7831322918332948
-0.7715304851426158
-0.1458907673027695
0.7244643314993173
-0.5785735643252988
0.02696064320409153
-0.01530821756733865
0.01854338477102946
-0.003235166214162311
-0.3551223729231965
-0.1258698367331146
0.8798010863652362
0.7403648229833545
-0.2428238082494678
-0.497541015973323
0.6197985105640454
0.685242771323149
-0.4705749524770142
-0.0008084097329650918
-0.2849520870599566
0.02566322283734442
0.7443303709690954
-0.7699935934331789
-0.3235642055077986
-0.07188796083136322
0.07548082868640345
-0.9603470577206277
0.1256963324093096
-0.6776276956377189
0.05202448354715386
0.6413125403642936
-0.6933370239962202
-0.7569386109650635
0.07931091536381443
0.5884424547598232
-0.6603304154786191
0.1562797165297154
-0.336245647171643
-0.7711518362522323
-0.0003786487792932044
0.3712541648441823
0.601552170432523
-0.02623033173756236
0.02427169896609552
-0.02427169927402833
-0.0178485047081663
-0.05190325634531697
-0.2252259196184348
0.01997376517249922
-0.01714347978720339
-0.7339623322180897
0.2793514208495346
0.6795520795378192
-0.690240299481835
0.01068822010386123
-0.5979919877325378
0.6500164737499082
0.6531407839785166
-0.06469833469355393
-0.6317749807096874
-0.1251636290191573
-1.049846217245344
0.01116036577115373
0.1361750981713578
-0.7082991052654465
-0.7415477831397225
-0.7632792666062743
0.3653490445968313
-0.4129413395365072
0.4697582433347468
-0.05681690183286913
-0.676911849144194
-0.03138725607363426
0.5008778878768962
0.7306787089737409
-0.2329860402984308
0.1103579712678479
0.9607257038582874
0.4457387169087725
0.1342004078151743
-0.579939124856765
-0.6784854387769285
0.001573588412707381
-0.04441833295975412
0.029110102343306
0.637160583047636
-0.7747118290181718
-0.002556748921358703
0.002556749697050029
-0.6005032918112702
0.6482903564020769
-0.04778706499180151
-0.6511636963309657
-0.1133310068970225
-0.6716916891364278
0.05001153962930723
0.6072943991905502
-0.1371865877882158
-0.8175824511263942
-0.5550969587575633
0.5670930206130013
-0.01199606361094338
0.6343981531513199
-0.6237099309784411
0.3222270912055937
0.2141709045379277
-0.5363979957126649
-0.1043872027592451
-0.6026691121459538
-0.09066790987062003
-0.154764587267771
-0.5050854341885826
0.4042003138298559
-0.4987101651193455
0.1264214768851356
0.6783670913410733
-0.8047885680326964
0.59919599292321
-0.3719327170855246
-0.04100864652576174
0.07150379737417983
-0.576589240269152
0.5518610356303046
-0.04038872247006223
-0.5114723131861736
-0.3121727681843258
0.3047295285221466
0.007443239913773246
0.4530664142107637
0.122501483080441
0.0504716778238742
-0.3157357223853358
0.1566319865374111
0.1591037359427037
0.2418982213621702
-0.01554553910616416
-0.2963244611141997
-0.3134020311119213
0.3671184259675684
-0.05371639491324834
0.7898417728294549
-0.6284435085721412
-0.02272018848263321
0.499443386144047
0.2811483848644268
-0.5239721973083005
0.577482878814076
-0.5774828788079858
-0.2897650236938152
-0.5864832956245049
-0.2955350817788802
-0.586483295226634
-0.5955222200646934
-0.8385053650895687
0.1700547452485755
-0.5848326006375971
0.8211909921650575
-0.003608190365700415
0.1196494726421282
0.4819026979247342
0.09668315394331692
0.1852582159120254
-0.03619612635369931
-0.1490620870455079
-0.01773958304024945
0.5939281827914151
-0.9456996190963308
0.4273874097343805
-0.0001957185594969664
0.001307217398051572
-0.001111495144138575
-0.6432718869383599
-0.131796554540048
-0.4659951240655613
0.6001955262920772
-0.5037808760073587
-0.3194877865364493
-0.257101454575056
-0.2716137961892092
-0.1120617552931963
0.1120617547976482
0.1527361314260195
0.05816073074480516
0.1964185936601709
0.4542126969035482
-0.5727158835850067
0.1067207515036511
0.2450879567910365
0.4661443542221103
0.5338556467376939
0.6422766336822018
0.08216371737786994
-0.0003633409304023799
-0.08180037038039775
-0.2768310823521735
-0.5407513690287895
-0.5481432904961029
0.11405470677518
-0.1260358735271928
0.01198116720185891
-0.1059820630492462
-0.3861026090462489
-0.04428464860761953
0.651579050177081
-0.4987804787761677
-0.1444914080660268
-0.3374615527715957
0.2912681248357004
0.1232112498509562
-0.6035455823388465
-0.2039320766959596
-0.2616331084964343
0.001053622235437188
-0.4218738022623862
0.3220123353730971
0.09986146770105499
-0.09085615908592519
0.2916085906324932
-0.8959215764714501
-0.4580613048870968
0.6338394729120647
-0.7729052213235025
0.6685180185979319
0.3427043388664182
-0.1262493823230735
0.2257882820801551
-0.09953890081653674
0.02630655069557105
-0.5862376904248459
0.02931600117804834
0.5569216888404467
-0.9007334614923957
0.5467839176341799
-0.6654602712841396
-0.09578871947030536
0.1090873985339046
-0.10908740233046
-0.316544133577151
0.3640820986702458
0.0147672879485219
0.026255568937866
0.05590815368413223
0.5050239598496138
0.6623285297009252
-0.7409796530068552
0.02800533262801354
0.02342149702409723
0.0008501920366686586
-0.006744584536396902
0.00674458473194284
-0.4153597451328866
0.5378612312165454
0.01518117567581092
-0.01518117548171286
-0.7922553101113122
-0.0601638880405689
0.1217891301932512
-0.4532115319607357
0.5599322862184182
0.4501036681534712
-0.4978907397855494
0.1497413466435662
-0.1497413469214008
0.0394111012848137
-0.003712490606687523
-0.04114005996841548
-0.9772808353503187
0.5418188805957637
-0.4721766492260072
0.04126413701644662
0.5144466998729211
0.03100079674883199
-0.5454474970148514
-0.6158582661376598
0.1170777898761818
-0.3298161672201276
0.01345550617822278
0.3163606607148632
-0.153789752116686
-0.07919628434146689
-0.5407384926468777
-0.04549920222679798
0.1361750980561957
-0.04124852880958891
0.03869178715424204
0.08173747477748625
-0.08173746934484194
-0.5388623881906091
0.4851459906435234
-0.4143589752650096
0.1613356595859712
0.6221687012060949
-0.09803643391331075
-0.005728275913967581
0.005728274344545452
0.5329794869004881
-0.07291969759412321
0.006198032439103851
0.02708770005638748
0.03451955699132724
0.6869918475191784
-0.7599115454303794
-0.6601460349952818
0.6374258520050214
-0.1080945598528073
0.3127538549034833
0.7461596656995004
-0.01784850310919969
-0.2671107795667615
0.1485020108878925
-0.7446777418152806
0.4843631499147869
-0.42247985631088
-0.1014115761510088
0.003612032106923117
-0.01456016510356686
0.01961043199123922
0.411869629152138
-0.1216886499187124
-0.3897836630600339
0.6289445009928671
0.01900361763401459
0.01043178745848227
-0.01043178698528835
-0.3571654235128152
-0.08464968666934924
-0.5606596135951094
0.557051422866477
-0.2383947771760162
0.4648142040004916
-0.1509254504051769
0.7284422633534342
0.6732391019919273
-0.04124852319465657
-0.6151112526004
0.5610308748934363
0.2881938058200385
-0.2861736696553503
-0.002020134327673687
0.5465697007660117
0.09338967759638397
-0.03885618746488205
0.1971521717636684
-0.1582959834023131
0.1205936684868744
-0.120593664987246
-0.8587613165739765
0.002405885058559596
-0.1129957519603561
0.1400834503496679
-0.1320560134066879
0.1320560130149281
0.02342148095700199
-0.02357678981119508
0.6711218443773941
0.05871821548546717
-0.323211496113308
-0.06289111159468599
-0.4712440744767769
-0.04926775272347789
-0.1518125216327461
0.1518125216601527
-0.04238925876061905
0.143167718658134
-0.1431677183351077
0.1368778467213115
-0.1368778448914754
-0.3155814012599851
-0.1145620363548117
0.2266868263781452
0.1030173823798968
0.03486596559751191
-0.8211211535845895
-0.1973504781878169
0.1703832504750951
0.02060288426853357
-0.2655940761071249
0.1256883946538304
-0.1256883943698461
-0.4140366718687954
-0.08467349426055759
0.2366492074899458
0.002147541859834787
0.04048895505728884
-0.5432526249270102
0.5777847091588191
-0.02368984260998646
-0.01869940998691672
-0.02853585360121308
0.02482336787003683
0.006573610155262108
-0.184162430729421
0.1775888209620097
-0.1078716796447431
-0.2283739712561381
-0.1448965235916302
0.1448965233219842
0.07299766608165527
-0.07299766643327352
-0.01949950362807434
-0.1087086786203477
0.1282081818739047
0.2417703525890203
-0.1827048327679454
-0.0247701761204489
0.02562036242176841
-0.138264874836024
0.623410860354295
-0.03906408316472998
0.4216674095734966
-0.04179768727072797
0.06157998769832224
-0.1536142017209555
0.1536142023403835
-0.6361442776589383
0.3090407501517822
-0.07930511882681514
-0.2348056756494794
0.003585563796099775
-0.1225066013751908
0.1629955579121226
0.1944280897129628
0.09768323738213973
0.09518831241516541
-0.06066875639937407
0.07250518447085047
0.04154952125680876
0.06382210659048036
0.1065611430448234
-0.0957951881591495
0.2061531655332024
0.01298855109439078
-0.1129386532185041
-0.1021484323928045
0.09799442099297043
0.004154011503528328
0.01298969962219042
-0.02279407339672031
0.03788489445655709
-0.03788489454702282
0.07464557430001841
-0.05472273462080358
0.0547227348492564
-0.224578768064869
-0.05135867299854429
0.01147418355263426
-0.1031293488527554
0.01628418279238321
0.1082534291533254
-0.1082534290534714
0.2942895570377125
-0.2716208921177157
0.1637492086123142
-0.05054795921974778
-0.2210729337183495
-0.01760261344415181
0.01760261348232739
0.3672630566905357
0.2852746632542997
-0.5273504980018138
-0.09399920816497653
-0.03203666453745399
0.5285987109921645
0.2132345016702624
-0.1694275355643096
-0.3816998155230614
0.07651325032409509
-0.1478991642991584
0.1874662590775611
-0.03956709493909583
-0.06670391521217414
0.066703915459145
0.8226729160423973
-0.5606634499663801
-0.003093376228949448
0.0160830793707081
-0.01999425336606029
-0.2865675872412956
-0.01747933634246359
-0.01284050352217593
-0.1317213195621525
-0.5719865266922292
0.5559175681030342
-0.5691235624971717
-0.006915997280263583
0.1023047878017653
-0.00180168038418794
0.01673635157862419
-0.1678934135628948
-0.3367066228172473
0.2335772740995334
-0.05461229067703127
0.03511278457318098
0.1317300661225806
0.1729994592044667
0.3360592487104858
0.27685571546551
-0.2786573958641407
-0.06345665319832082
-0.1548375216917069
-0.2213501724980408
0.07489456775139419
-0.01107246184080277
0.21428695424038
-0.1975506030830547
-0.08626416052737418
0.158769350626119
-0.3549526657173824
0.2088439448844262
-0.1925597625940815
0.08963422786067114
-0.4794178957504165
0.1746257570508868
0.1697692646213699
-0.2560334242615384
0.07239423965932011
-0.1941985283352256
0.176719192472995
0.01743494244291691
0.1413344090037053
-0.03954155512678532
0.06632488466162899
0.4666546028493471
0.02028227880502361
-0.07559311286239394
0.05636074848190799
0.1255232893186584
-0.2609172636821819
-0.2308877138207489
0.5597046249076246
0.1578998866491527
0.07874932000291077
0.07584206996762016
-0.03093261655339334
-0.007431202169597827
0.005411074259471601
-0.03278379638870986
0.1712953239774877
-0.1782113216158746
-0.05598268371895324
0.02252698994217252
-0.1466562003376012
-0.05286412681290265
0.1501704810908485
0.2770954014913441
-0.03899547737466409
0.01739218643432505
-0.2556977810401564
-0.1305549662960712
0.235568959501529
0.1792719564934506
0.1297687967862643
0.02172719211434997
0.08914409498142754
0.05203485660890089
0.4529891033351361
0.01714258437125045
0.09692969099202306
0.04385626380166446
0.07157821768426399
-0.1154344808438282
-0.2420758349922466
-0.2009991462660079
-0.02007378739160409
-0.2023224967216771
0.2757715697979397
)
;

boundaryField
{
    FrontBack
    {
        type            empty;
    }
    Top
    {
        type            calculated;
        value           uniform 0;
    }
    In
    {
        type            calculated;
        value           uniform -1;
    }
    Bottom
    {
        type            calculated;
        value           uniform 0;
    }
    Out
    {
        type            calculated;
        value           nonuniform List<scalar> 10(1.03555500915283 1.064468712695259 1.021405084919295 1.019268923170362 0.9971984052835939 1.01501715347471 1.035128046671488 1.062692333434478 0.8672479014923473 0.8820183773691141);
    }
    circle
    {
        type            calculated;
        value           uniform 0;
    }
}


// ************************************************************************* //
