/*--------------------------------*- C++ -*----------------------------------*\
| =========                 |                                                 |
| \\      /  F ield         | OpenFOAM: The Open Source CFD Toolbox           |
|  \\    /   O peration     | Version:  2412                                  |
|   \\  /    A nd           | Website:  www.openfoam.com                      |
|    \\/     M anipulation  |                                                 |
\*---------------------------------------------------------------------------*/
FoamFile
{
    version     2.0;
    format      ascii;
    arch        "LSB;label=32;scalar=64";
    class       volScalarField;
    location    "34";
    object      p;
}
// * * * * * * * * * * * * * * * * * * * * * * * * * * * * * * * * * * * * * //

dimensions      [0 2 -2 0 0 0 0];

internalField   nonuniform List<scalar> 
808
(
0.133685
0.0264903
0.0166352
0.133728
-0.170845
0.0271824
0.0156358
0.0403526
-0.0858646
-0.0098443
0.0315636
-0.0970836
0.034935
0.022324
-0.316374
0.0313709
-0.334936
0.0269678
0.0239067
0.0185829
0.0447637
0.381068
0.0740518
0.0175126
0.455834
-0.138307
-0.026425
0.012795
0.0202873
0.016341
0.0146539
0.0304588
0.0231745
0.0116615
-0.0693961
0.638816
0.0241006
0.0195145
0.0326525
0.0228729
-0.0399129
-0.0289569
0.0431149
0.0292736
-0.0814519
0.0901229
0.0223394
0.0433949
0.0282293
-0.124469
0.0157113
0.0352826
0.0498948
0.0133813
-0.106964
0.0256241
0.0150696
0.0442045
-0.00158276
0.0207727
-0.266879
0.0324462
0.0475954
-0.165674
0.0416916
0.0535123
-0.21757
0.029221
0.0146016
-0.218905
0.0353891
-0.243373
0.0341946
0.0294621
0.215132
0.0183664
-0.00126283
-0.094842
0.0192997
0.308126
-0.0921051
0.0235786
0.0391716
0.291688
0.0145687
-0.0181426
-0.28729
-0.1304
0.0415428
-0.193428
0.0524066
-0.0734934
0.252848
0.158425
0.0463569
-0.24997
0.0304035
-0.0554546
-0.0860392
-0.209511
0.0243882
0.0100554
0.0535214
-0.0145435
-0.12085
0.0618686
-0.0697009
0.00381604
0.0241289
0.0615167
-0.0697044
0.332388
0.0312099
0.0596971
0.0264731
0.46423
0.0252323
-0.202312
0.0287357
0.0706679
-0.323213
0.044487
0.0266273
0.0727355
0.112931
-0.0716322
0.126005
0.0774404
0.0488991
0.0722391
-0.223751
0.0402716
-0.0378718
0.121495
0.0311988
0.0229946
-0.0291263
-0.00922274
0.0323668
0.0202197
-0.351336
0.0636201
0.000728727
0.0328085
-0.04375
0.00973893
0.111143
0.173139
0.0157587
-0.00139049
0.0303667
0.341175
0.0431578
0.538984
-0.306057
-0.106565
0.0274704
-0.138488
-0.0192342
-0.116884
-0.247597
-0.337717
-0.216477
0.0318056
0.0670689
0.0310725
0.0345677
-0.214069
0.0297515
0.0486709
0.0533815
0.15835
0.0112168
0.152583
0.0261861
0.0855445
0.0739425
-0.118148
0.0342034
-0.266956
0.0409196
-0.165839
0.0296182
0.28269
-0.26065
0.119806
0.0316772
-0.147905
0.0322511
-0.0927977
-0.312748
-0.0645616
0.026284
0.100041
0.0287346
-0.343045
0.0242933
0.0463488
0.0160783
0.0786425
0.0806329
0.0422594
0.0259399
-0.233952
0.37983
-0.325171
-0.253074
0.0163292
0.0332584
0.0315828
0.021877
-0.312659
-0.260961
0.0240235
0.0216623
0.0281109
-0.246805
-0.0610323
0.0345792
0.0501075
0.0133543
-0.113435
0.0391826
0.0405475
0.00721616
0.0278073
0.127811
-0.302271
0.0919935
0.0183779
0.118648
0.0241046
0.0279087
0.0146789
-0.0597202
0.0403206
0.0193462
0.00827585
0.0334702
0.0227143
0.0108597
0.00109372
0.00291268
0.0135791
-0.000923624
0.00650132
-0.0139526
-0.00312358
0.0141497
-0.013088
-0.250674
-0.000260502
-0.0300827
-0.145677
-0.00118994
0.0257679
0.0239438
0.00407564
0.0324812
0.126138
0.052639
0.013295
0.00836991
0.0622889
0.0252034
0.0114303
0.0128306
0.0335811
0.0428465
-0.0398155
0.0421687
-0.308461
0.274564
-0.000454455
0.0101397
0.0251805
0.00522618
0.0146561
-0.2424
0.303139
0.0424949
0.0462648
0.0264345
0.100496
-0.0336155
0.0157509
-0.0286119
0.0401689
-0.0109094
-0.0495157
0.0333471
0.0341636
0.0613257
0.0500398
0.0294244
0.0136654
0.00860277
0.0578978
0.0231283
0.0242321
0.0425232
0.0270606
0.0565097
0.0177517
-0.422743
-0.0837265
-0.0125997
0.0403679
-0.142788
-0.173922
0.000414036
0.0280907
-0.258376
0.145376
0.174952
0.0290964
0.0251243
0.0605618
0.00766511
-0.161822
0.0259121
0.00381765
0.0284206
-0.0332958
-0.0485844
0.0294454
0.0439804
0.0155208
-0.0236181
-0.273041
0.0250767
0.0408742
0.10786
0.139923
0.0224982
0.230755
-0.0268921
-0.137495
0.560136
0.0264415
0.00733435
0.0287654
-0.00853062
-0.0562953
0.103691
0.0275132
0.00637551
0.0330386
-0.0158613
-0.292097
0.0669018
0.105836
-0.0428487
-0.277726
-0.252789
-0.289976
-0.248975
0.0566959
0.0341947
0.0164967
-0.0337957
-0.00457581
0.0124596
0.0337763
0.00312949
-0.416458
0.0694973
0.0486733
0.0250365
-0.416468
0.0296905
-0.0157444
0.128575
-0.239661
0.0674603
-0.00566055
0.0943398
-0.00129198
-0.265407
0.053124
-0.355236
0.0305239
-0.0555151
0.025436
0.021961
0.0159288
0.00534476
-0.2532
0.0216446
0.0162655
-0.0452555
-0.00559655
0.0138004
0.0461915
0.000554647
0.0155227
-0.000503798
0.0615448
0.0379173
0.017714
-0.401818
-0.0564131
0.0496401
0.0369889
-0.13308
-0.00410883
0.445169
-0.320386
0.0117576
-0.132292
0.0429241
0.0459291
0.0263103
-0.114414
0.0142774
0.0758603
-0.0533617
0.0165983
-0.001995
-0.00620313
-0.00875603
-0.00870045
0.0275307
0.133921
-0.101296
0.0223702
0.0167373
0.00908852
-0.0544127
0.0351514
-0.302335
-0.081696
0.020251
-0.0086688
-0.221038
-0.330815
0.00827618
-0.0392134
-0.0111999
0.0334509
-0.0229946
-0.180702
0.214856
-0.22516
-0.36903
-0.378417
-0.0263458
-0.0711453
-0.339589
0.365013
-0.00586579
-0.270948
0.024874
0.00321604
0.59706
0.00622088
0.033822
0.0340805
-0.0226552
0.00958507
-0.188988
-0.341853
0.0766394
0.0806048
0.00686699
-0.198364
-0.216219
-0.251027
0.0244612
0.0031674
0.0954024
-0.00325982
-0.0152456
0.0827492
-0.0285856
0.0410219
-0.182614
-0.358653
-0.0378316
-0.0808542
0.0356152
0.0128726
0.0947793
-0.0411189
-0.033082
-0.371613
0.469412
-0.297192
-0.274231
-0.0220447
-0.0339273
-0.28963
-0.286115
0.137797
-0.253454
-0.206848
0.875368
0.0283996
-0.268765
0.0215488
-0.0652121
0.051028
-0.376766
-0.301547
-0.224421
-0.00990471
-0.313383
-0.272556
0.000905973
-0.00142318
0.0880046
-0.213262
0.0332869
-0.410337
-0.372688
-0.436418
-0.174969
-0.0322965
0.0302691
0.108338
0.145808
-0.0208015
-0.262246
0.323174
0.0746837
0.0180882
-0.346375
-0.406287
-0.235051
0.0665227
-0.262799
0.105999
-0.0639662
-0.0704991
-0.274319
-0.164815
0.0224021
-0.255064
-0.352479
0.0153938
0.00824117
0.0313781
0.00647787
0.0368015
-0.295573
-0.262892
-0.0908292
0.0925572
0.0348684
-0.252994
-0.328318
-0.334611
-0.26448
0.0368274
0.0999003
0.00955451
-0.308582
-0.350578
0.098054
0.0347941
-0.175188
0.0340562
0.0163356
-0.381633
0.0367845
-0.19772
0.00116333
-0.250463
-0.0236688
0.00129347
-0.415333
-0.505322
0.0048223
-0.39066
-0.369671
0.0241647
-0.0906358
-0.30035
-0.0318019
-0.25769
0.0499428
0.0693739
0.0815762
-0.191214
0.060528
-0.00556647
-0.484266
-0.0121019
-0.289947
0.0279935
-0.247105
-0.554263
0.12857
0.266533
0.456038
0.0239319
0.0072227
0.00159159
-0.252811
0.652437
0.0308837
-0.238744
0.038742
-0.0165335
0.107197
0.484339
-0.420568
-0.015473
-0.0248114
0.0449958
0.0177182
-0.502479
-0.268066
-0.284053
-0.324787
-0.211839
0.0197886
-0.28802
0.13041
-0.301341
-0.337152
0.507058
0.588142
-0.380768
0.149986
-0.295581
-0.00406937
-0.0337646
0.399626
-0.00590696
-0.245961
0.0371944
-0.547703
-0.0180553
-0.222582
-0.0372432
-0.362289
-0.323779
0.00242858
0.0104356
-0.240679
0.477501
0.680363
-0.231204
-0.343247
-0.244616
-0.0310704
-0.35363
-0.313605
-0.190209
-0.242241
0.755562
-0.386497
0.764675
-0.329685
0.353748
-0.23105
0.0125109
0.167465
-0.54584
0.261835
-0.31101
-0.352156
-0.378365
0.877986
-0.284009
0.232887
0.17756
0.664909
0.147474
-0.374431
-0.349043
-0.193455
0.0193135
0.0725377
0.550416
0.0213235
-0.0197982
-0.317872
0.10482
-0.0727896
-0.396933
0.0344271
-0.314906
-0.102812
-0.176337
-0.280377
0.0174017
0.124706
0.0170983
0.0745781
0.136739
-0.381125
-0.383796
0.011695
0.0127535
-0.499212
-0.553019
0.164933
0.188536
0.107683
0.669918
-0.0323477
-0.142677
-0.412074
-0.347371
-0.0146715
0.0698168
0.7689
-0.489432
0.407005
0.00924542
-0.474156
0.149466
-0.093417
0.413171
-0.171384
0.0250673
-0.248163
-0.029225
0.23229
0.830774
0.355076
0.763689
-0.281209
-0.355847
-0.330869
0.156603
0.266828
0.0666444
0.377143
0.177499
0.510852
0.269209
0.0295716
-0.132242
0.0602785
-0.283995
0.893623
0.430133
0.64892
0.521402
-0.289413
-0.253901
-0.306814
-0.262836
0.0536258
-0.333589
0.142818
0.598757
-0.255952
0.0223894
-0.258771
0.185546
-0.376166
-0.413844
-0.164893
-0.345151
-0.327341
-0.288346
-0.256286
-0.121887
-0.328573
-0.0810735
-0.0458745
0.141194
0.679618
-0.245737
-0.228241
0.831639
-0.232409
0.317269
-0.261689
0.421256
0.110195
-0.246306
-0.43784
0.439266
-0.214046
-0.350672
0.224288
-0.299503
-0.00976676
-0.340331
-0.137893
0.0416019
0.591412
0.792863
-0.332722
0.253067
-0.29139
0.831301
0.00497982
-0.346546
-0.0137272
0.780927
0.206196
-0.353928
-0.314809
0.479932
-0.235344
0.0244257
0.344909
0.253924
0.320786
-0.278575
-0.355164
0.700966
)
;

boundaryField
{
    FrontBack
    {
        type            empty;
    }
    Top
    {
        type            zeroGradient;
    }
    In
    {
        type            zeroGradient;
    }
    Bottom
    {
        type            zeroGradient;
    }
    Out
    {
        type            fixedValue;
        value           uniform 0;
    }
    circle
    {
        type            zeroGradient;
    }
}


// ************************************************************************* //
