/*--------------------------------*- C++ -*----------------------------------*\
| =========                 |                                                 |
| \\      /  F ield         | OpenFOAM: The Open Source CFD Toolbox           |
|  \\    /   O peration     | Version:  2412                                  |
|   \\  /    A nd           | Website:  www.openfoam.com                      |
|    \\/     M anipulation  |                                                 |
\*---------------------------------------------------------------------------*/
FoamFile
{
    version     2.0;
    format      ascii;
    arch        "LSB;label=32;scalar=64";
    class       surfaceScalarField;
    location    "34";
    object      phi;
}
// * * * * * * * * * * * * * * * * * * * * * * * * * * * * * * * * * * * * * //

dimensions      [0 3 -1 0 0 0 0];

oriented        oriented;

internalField   nonuniform List<scalar> 
1171
(
-0.945346
0.945346
0.782468
-1.09046
0.30799
-0.401346
-0.70583
1.10718
0.054654
-0.0634447
-0.277082
0.340527
-0.782468
0.0937032
0.688764
0.950243
-0.213356
-0.736888
0.861099
-1.04534
0.184239
-0.358015
-0.0350705
0.393086
-0.00346075
0.608746
-0.605285
-0.436865
0.910996
-0.474131
-0.42146
1.03257
-0.171468
0.288514
0.0713604
-0.359874
1.00585
0.0267172
0.303901
-0.0153867
1.04701
-0.0411559
0.60832
-1.00967
-0.789604
0.608378
0.181226
0.393301
-0.830166
0.561618
-0.915934
0.354316
-1.07881
0.669134
0.409673
-0.642647
0.639186
0.0337058
-0.253699
0.219993
0.0118518
-0.619896
0.608044
0.467222
-0.502293
-0.839462
0.881196
-0.0417346
1.01262
0.0343862
0.918104
-1.07306
0.154953
1.04613
-0.0335139
-0.704157
-0.0854464
1.24856
-0.846577
-0.401987
0.206672
-0.0772372
-0.416739
0.493976
-0.273638
0.183192
0.0904461
-0.604874
-0.485584
0.969833
-0.0517292
-0.0134331
0.870623
-0.85719
0.525174
0.72339
0.531509
0.024052
0.44317
-0.787673
-0.105121
0.892794
0.588525
0.226562
-0.815087
0.0452304
0.560659
-0.605889
-0.507777
-0.571029
-0.385616
-0.687441
0.0289553
0.244081
-0.273036
-0.942415
-0.0259876
0.968403
0.377774
0.0153119
0.859051
0.0911916
-0.602827
-0.0398195
0.0380763
-0.825749
0.164935
0.892714
-1.05765
-0.402549
0.0191671
0.383382
-0.705983
-0.236432
-0.685439
0.850374
0.617197
0.2938
-0.581233
0.986531
-0.816071
-0.17046
0.0209624
-0.135633
0.11467
-0.458528
-0.0437648
-0.291479
0.908676
-0.0171926
0.446729
-0.429536
-0.465048
1.05357
0.712518
-0.817638
0.39834
-0.0834352
-0.314905
0.771334
-0.771334
-0.939179
0.0379536
-0.315036
-0.697621
0.684188
-0.0301566
-0.142906
0.173062
0.89696
-0.0263374
1.03654
-0.809973
0.22329
-0.31923
0.0959392
0.998544
-0.139493
-0.678548
-0.0400053
0.718553
0.14838
-0.232766
0.0843863
0.803761
-1.01712
-0.443896
0.311952
0.131944
0.64044
-0.628588
0.87874
-0.396081
-0.482659
0.493124
-0.694883
0.0368418
0.658041
0.183457
0.660884
0.0537183
-0.714602
0.13267
-0.0947162
-0.514803
0.112254
0.0340381
-0.900131
0.866093
-0.548536
-0.762353
0.0581958
0.502173
-0.059003
0.275069
-0.8334
0.558332
0.424196
0.575804
0.595867
-0.557791
-0.381147
-0.0398769
0.421024
0.553943
0.217391
-0.639339
0.684569
0.0854345
0.897464
0.0018302
-0.680378
-0.765147
0.799185
0.620879
0.0943759
0.377413
-0.471789
-0.156616
0.495567
0.0650921
0.822781
-0.59474
-0.228041
0.650555
0.335976
-0.429573
0.693513
-0.599137
0.41019
0.151428
-0.0554285
-0.698484
-0.118099
0.816583
-0.123256
-0.648078
-0.612422
0.363659
0.248763
0.656087
-0.654257
0.31037
1.01878
0.0177502
-0.765147
-0.00582792
0.0267904
0.712518
0.779037
-0.779037
0.841935
-0.827703
-0.0142326
-0.454716
0.878913
-0.191276
-0.323528
0.763424
-0.669274
-0.0941502
-0.800131
0.101647
0.110097
-0.712924
0.817638
-0.974254
-0.178276
0.1963
-0.0180244
0.127272
-0.987413
0.860141
0.551872
-0.020363
-0.291271
0.596028
-0.304757
-0.654513
0.781785
-0.159984
0.712013
-0.842741
0.130729
1.21771
-0.70829
-0.509423
0.723609
-0.0720002
-0.00753313
0.0138
-0.0062669
-0.802173
-0.967994
0.262164
-0.697621
0.571284
-0.552117
-0.0855748
0.733904
-0.648329
0.779379
0.165967
0.492295
0.507705
0.0112369
-0.639763
0.628526
0.699077
0.123704
-0.723609
0.799185
0.179496
-0.433195
-0.0372977
0.0182917
0.019006
0.667374
-0.439367
-0.228007
0.688764
0.00215522
-0.255982
0.540333
0.127041
-0.0137617
0.000889651
0.0128721
0.00411012
-0.0116433
0.120256
-0.203691
-0.939021
0.031372
-0.139836
-0.05802
0.111213
0.762093
0.742404
-0.1666
0.413611
-0.499186
-0.162975
0.386266
0.636763
0.0520012
0.231348
-1.05905
-0.974254
0.318771
0.684188
-0.15861
0.0157045
-0.793465
0.990076
-0.196611
0.480924
-0.097542
0.794093
0.305117
0.233139
0.0707616
-0.680607
0.680607
0.223203
0.669591
-0.0158481
0.462577
0.478128
-0.00342581
-0.0338719
0.545419
0.00645336
-0.654513
0.570824
0.1926
0.0272777
-0.0134776
-0.636763
0.185197
0.804879
0.0293078
-0.740527
0.71122
0.757166
-0.822268
0.0651017
-0.779379
-0.0302597
0.0419032
-0.0116436
0.0840655
-0.133728
-0.10754
0.241268
-0.00612869
-0.00763304
0.793208
-0.763901
0.844172
0.263003
-0.488306
-0.428119
0.916425
-0.00185234
0.00185234
0.156424
0.33997
0.774447
-1.11442
-0.201529
-0.561486
0.763015
-0.0204761
0.193538
0.384771
-0.236392
0.997463
-0.657493
0.712065
0.929833
-0.155386
0.193495
0.781785
0.610317
0.24438
0.636816
-0.648078
0.319393
-0.0729199
-0.00821408
0.0811339
0.879532
-0.134122
-0.745411
-0.569161
0.535647
0.545284
-0.569161
-0.610317
0.535647
0.00110121
0.932945
-0.0887728
-0.553943
0.472019
0.0819237
0.517483
0.619611
-1.13709
0.497508
0.499955
0.58985
0.519456
-1.10931
0.42326
0.506573
0.472019
-0.517546
-0.505146
-0.721143
-0.563079
-0.108837
-0.00389483
0.00389483
0.712566
0.531784
-1.09486
0.741389
-0.363976
-1.11484
0.406553
-0.673702
0.43727
0.0310536
-1.0219
0.990848
0.451132
0.0927077
0.786825
-1.17375
-0.978244
-0.0149343
0.993178
0.218819
-0.0897028
-0.129116
0.739167
-0.790897
0.988079
-1.06552
0.0774448
0.0849481
-0.679688
-0.100191
0.898553
-0.798361
-0.866877
0.951826
-0.699658
0.593879
0.105779
-0.839523
0.240613
0.598911
0.00277241
-0.00462475
0.426497
0.185666
-1.03664
0.850977
-0.731391
0.742627
1.05646
0.0231703
-1.07963
0.0782128
-0.000782198
0.421806
-0.359424
0.040194
0.98572
-0.954667
-0.57652
-0.688148
0.00846029
-0.144196
-1.05534
-0.0101801
0.56893
-0.155319
-0.131311
0.35013
-0.507797
0.748409
0.482659
-0.929194
-0.843707
0.0892377
-0.279524
0.72173
-0.442205
-0.0644953
-0.856044
0.578299
0.178868
-0.213933
1.00076
0.936891
1.00226
-1.01244
0.0452115
-0.0452115
-0.0882551
-0.224672
0.134969
0.344102
-0.025331
0.235294
0.936262
0.0113802
-0.0175089
0.657849
0.342151
0.797412
-0.604874
-0.757972
-0.576327
-0.493913
0.493913
-0.207636
-0.107399
0.657575
-0.999156
0.34158
-0.478618
-0.569636
0.356221
-1.04366
-1.00291
1.08036
-0.681759
0.690219
0.676729
0.206381
-0.88311
-0.470549
-0.167552
0.846308
-0.678756
0.0666505
0.00458294
0.00313763
-0.00772056
0.064641
-0.289313
1.0138
0.562772
-0.288853
-0.273919
0.433656
0.741818
-0.518615
0.011142
-0.28478
0.190754
0.719873
-0.910628
-0.366934
-0.0468215
0.131917
-0.928088
0.182677
-0.792774
0.0818024
0.77022
-0.852023
-0.927126
0.134351
0.713651
-0.760472
0.230036
-0.363764
-0.384963
-0.0855854
0.371136
0.735515
-0.0420027
0.00138966
-0.00138966
-0.00300518
-0.0476136
-0.0253063
-0.0193937
0.0307738
-0.540282
0.335474
0.755722
-0.861412
0.10569
-0.775743
0.857545
0.776875
-0.0632244
-0.762307
-0.164819
-1.19976
0.0208384
0.0243731
-0.349528
-0.862498
-0.826867
0.42488
-0.285509
0.360917
-0.0754074
-0.593388
0.24386
0.543691
0.712503
-0.0351118
-0.0229081
1.01367
0.48757
0.198894
-0.686464
-0.409471
-0.183917
-0.00430732
0.00889025
0.748819
-0.866918
0.00690219
-0.00690219
-0.688374
0.72064
-0.0322656
-0.540782
-0.0876994
-0.709127
-0.0412859
0.669812
-0.0507358
-0.876679
-0.0473267
0.303018
-0.255691
0.86765
-0.76196
0.337726
0.256417
-0.594143
-0.113679
-0.742602
-0.109421
-0.200804
-0.0886126
0.471137
-0.514901
0.146279
0.741258
-0.887537
0.493124
-0.198362
-0.087147
-0.10327
0.0146571
0.595
-0.0898717
-0.505128
-0.283982
0.304707
-0.0207255
0.556453
0.184937
0.0342736
-0.310929
0.168432
0.142497
0.0476839
-0.0535118
-0.258932
0.0555858
0.19105
-0.246636
0.894742
-0.404003
-0.136778
0.55374
0.276891
-0.565745
0.414351
-0.414351
-0.199252
-0.400893
-0.21229
-0.400893
-0.654747
-0.849856
0.180582
-0.269034
0.742565
0.0428825
0.187223
0.548292
0.107644
0.116503
0.0108373
-0.12734
0.0339835
0.789716
-1.07087
0.642751
0.0685708
0.0323653
-0.100936
-0.74198
-0.177379
-0.536737
0.735632
-0.547636
0.0853399
-0.0706828
-0.340236
-0.0814709
0.0814709
0.0419228
-1.96174e-05
0.137341
0.307405
-0.743676
0.206939
0.0603567
0.471644
0.528356
0.776901
0.0174316
0.033518
-0.0509496
-0.291651
-0.585028
-0.517327
0.112915
-0.117934
0.00501944
-0.121664
-0.413399
-0.00115823
0.67097
-0.585191
-0.156789
-0.0502929
0.0238519
0.0182221
-0.255325
-0.196799
-0.178985
-0.0247065
-0.482953
0.421495
0.0614583
0.0374842
0.293648
-0.864677
-0.533377
0.704953
-0.852471
0.738792
0.461795
-0.039289
0.0687657
-0.0294767
0.0955851
-0.632907
-0.000208638
0.633115
-0.893085
0.634194
-0.722449
0.00948726
0.00640471
-0.00640471
-0.299787
0.461001
-0.039195
-0.00438459
0.0218162
0.578876
0.471665
-0.699706
0.0139071
0.00529385
-0.00390419
0.00350638
-0.00350638
-0.496205
0.681141
0.0138659
-0.0138659
-0.777235
-0.00787888
0.0106513
-0.462772
0.669711
0.523239
-0.555505
0.0682669
-0.0682669
0.0337861
-0.0676579
0.0145538
-1.0606
0.551172
-0.571612
-0.00462475
0.596131
0.010087
-0.606218
-0.700281
0.11509
-0.318348
-0.0123198
0.330668
-0.0172163
-0.0178955
-0.602157
-0.0307492
0.0243731
0.00575367
0.00114852
-0.00224917
0.00224917
-0.525775
0.279139
-0.450266
0.134085
0.663327
-0.138172
0.00174796
-0.00174796
0.508486
0.0948045
0.00825705
0.0179684
-0.00111837
0.630107
-0.535303
-0.800538
0.66376
-0.110611
0.325682
0.801603
-0.00300518
-0.111147
0.0976695
-0.658604
0.548093
-0.214879
-0.10415
-0.0238586
-0.0259405
0.0141244
0.484581
-0.0894132
-0.415715
0.712455
0.000388451
0.0072912
-0.0072912
-0.237557
-0.21837
-0.571717
0.614599
-0.146829
0.506615
-0.2229
0.83122
0.924067
0.00575367
-0.74352
0.668085
-0.0352145
-0.0509896
0.0862041
0.701244
0.0930193
-0.0130765
0.0726302
-0.0595537
0.0108274
-0.0108274
-0.768887
0.0230554
-0.0426253
0.0605936
-0.0874688
0.0874688
0.00529385
-0.00125721
0.770427
0.0344519
-0.319123
-0.0942764
-0.520324
-0.0855074
-0.0687065
0.0687065
-0.0171636
0.080415
-0.080415
0.0289286
-0.0289286
-0.355169
-0.0744035
0.241171
0.0707812
0.0576677
-0.729836
-0.0586146
0.161352
0.0181436
-0.252918
0.080336
-0.080336
-0.466048
-0.0488538
0.231607
-0.0116137
0.0035045
-0.645382
0.644281
0.0757195
-0.092883
-0.0282372
-0.0394208
-0.0121481
-0.155777
0.167926
-0.149311
-0.214453
-0.0828497
0.0828497
0.0554216
-0.0554216
-0.0293333
-0.0944961
0.123829
0.00846518
-0.188043
-0.00618655
0.00228235
-0.284093
0.563231
-0.0260493
0.385618
0.00713216
0.00573992
-0.0535074
0.0535074
-0.722658
0.320572
-0.127077
-0.210329
-0.022437
-0.0208035
0.024308
0.200746
0.0405217
-0.00211063
0.000992259
0.0832899
0.0296247
0.0552427
0.10611
-0.0240086
0.00110045
0.000389008
0.00676526
0.00402018
0.00812668
-0.0121469
-0.00199735
0.00752061
0.0282751
-0.0282751
0.0518267
-0.0417794
0.0417794
-0.190991
0.0125052
0.0268975
-0.0771776
0.0181012
0.0764235
-0.0764235
0.262205
-0.244313
0.095002
-0.0675817
-0.176731
-0.0163597
0.0163597
0.406366
0.251675
-0.518144
-0.080636
-0.0372981
0.540451
-0.019772
-0.0706255
-0.474587
0.0839615
-0.153907
0.171522
-0.0176148
-0.0467988
0.0467988
0.885565
-0.590741
-0.00964508
0.00764773
-0.00599791
-0.284778
-7.90679e-05
0.00461909
-0.0429102
-0.622765
0.569177
-0.651071
0.0141433
0.180127
0.0151991
0.0245788
-0.159905
-0.336078
0.2589
-0.0564798
0.0271465
0.171549
0.133159
0.149787
0.267432
-0.252233
0.0051687
-0.113229
-0.222649
0.0683952
-0.0131525
0.164934
-0.140356
-0.0684771
0.151767
-0.394654
0.127135
-0.109034
0.0602228
-0.475938
0.176141
0.176576
-0.245053
0.00540998
-0.176582
0.176503
0.00391243
0.147855
-0.0279135
0.0510245
0.457461
0.0119154
0.0281059
-0.00185978
0.0346531
-0.240263
-0.204134
0.58854
0.169482
0.0621247
0.0788789
-0.0636406
0.0999385
-0.0137343
-0.0302256
0.167847
-0.153704
0.0422302
-0.00736272
-0.104285
-0.0287274
0.0433307
0.253575
-0.0127921
0.0605177
-0.311995
-0.00539036
0.21677
0.144165
0.176407
0.0559003
0.0977801
0.04605
0.532826
-0.0117579
0.102556
0.0433781
0.0652116
-0.10859
-0.26647
-0.200066
0.0233343
-0.222363
0.288661
)
;

boundaryField
{
    FrontBack
    {
        type            empty;
    }
    Top
    {
        type            calculated;
        value           uniform 0;
    }
    In
    {
        type            calculated;
        value           uniform -1;
    }
    Bottom
    {
        type            calculated;
        value           uniform 0;
    }
    Out
    {
        type            calculated;
        value           nonuniform List<scalar> 10(1.08736 1.03503 1.22629 0.923215 1.13907 1.06965 1.24435 1.04825 0.613603 0.613183);
    }
    circle
    {
        type            calculated;
        value           uniform 0;
    }
}


// ************************************************************************* //
