/*--------------------------------*- C++ -*----------------------------------*\
| =========                 |                                                 |
| \\      /  F ield         | OpenFOAM: The Open Source CFD Toolbox           |
|  \\    /   O peration     | Version:  2412                                  |
|   \\  /    A nd           | Website:  www.openfoam.com                      |
|    \\/     M anipulation  |                                                 |
\*---------------------------------------------------------------------------*/
FoamFile
{
    version     2.0;
    format      ascii;
    arch        "LSB;label=32;scalar=64";
    class       volVectorField;
    location    "34";
    object      U;
}
// * * * * * * * * * * * * * * * * * * * * * * * * * * * * * * * * * * * * * //

dimensions      [0 1 -1 0 0 0 0];

internalField   nonuniform List<vector> 
808
(
(0.897058 -0.0090945 0)
(1.02078 -0.0330139 0)
(1.24712 0.210144 0)
(1.06698 0.010009 -2.83357e-21)
(1.46716 -0.299424 0)
(0.958477 -0.0308286 0)
(1.16636 -0.0561066 -3.36657e-21)
(1.13293 -0.012056 0)
(1.34944 -0.234583 1.80402e-20)
(1.2379 -0.0987801 -1.56918e-21)
(1.1231 -0.180307 7.50458e-21)
(1.37373 -0.269098 0)
(1.01794 -0.0232105 0)
(0.752757 -0.0220757 0)
(1.02846 -0.0383699 2.08106e-20)
(1.11438 -0.0315025 0)
(0.92228 -0.0264093 -6.55694e-21)
(1.01959 -0.0461178 -1.27059e-22)
(1.19631 0.147184 0)
(1.12389 0.00336332 0)
(1.17807 -0.195511 -1.04752e-20)
(0.931206 0.127849 1.10204e-19)
(1.07247 0.00857345 -1.3678e-20)
(1.17486 -0.0275115 0)
(0.955426 0.186885 0)
(1.26772 -0.0093137 -2.81845e-20)
(1.27565 -0.184039 -3.15425e-23)
(0.960166 -0.0271832 -5.16373e-21)
(1.11736 -0.0388538 0)
(1.04672 0.044504 -2.03254e-22)
(1.01047 -0.0417938 4.5727e-24)
(1.12673 -0.00800283 0)
(1.03864 0.0250781 0)
(1.08968 -0.0261455 3.96012e-21)
(1.30716 -0.0809755 6.17872e-21)
(0.740728 -0.108475 1.14123e-19)
(0.883638 -0.0293678 -1.00546e-20)
(1.02789 0.02675 9.48235e-22)
(1.19651 0.0317955 -4.73005e-21)
(1.07741 0.0058969 0)
(1.27271 -0.0625893 -1.12551e-20)
(1.27789 -0.136923 0)
(1.00517 0.00247096 -8.77534e-21)
(1.11274 -0.0528156 9.70862e-21)
(1.09004 -0.0281508 0)
(1.00988 0.0151853 -1.94571e-20)
(1.00482 0.0259737 1.80658e-21)
(1.24841 -0.256803 -1.08172e-20)
(1.16538 0.0366217 -9.67899e-21)
(1.4056 -0.201064 -2.6062e-20)
(1.15641 -0.0514604 5.90237e-21)
(1.14891 -0.07745 0)
(1.11679 -0.00607012 7.87431e-21)
(1.106 -0.0578965 0)
(1.31886 0.209073 6.03503e-21)
(1.05451 0.0367826 -3.57595e-21)
(1.16035 -0.0689778 0)
(1.07129 -0.052944 5.32401e-21)
(1.23966 -0.0983654 1.68438e-21)
(1.12829 0.0427847 -8.56436e-22)
(-0.209359 -0.190986 0)
(1.21314 -0.21732 2.59184e-23)
(1.06558 -0.0297759 0)
(1.45243 -0.0968389 -2.43781e-20)
(1.08256 -0.081044 -1.25417e-20)
(1.04092 -0.0294211 -9.1501e-21)
(1.33923 -0.168821 2.59875e-20)
(0.652309 0.0112773 0)
(1.13484 -0.0951688 0)
(1.42659 -0.361854 0)
(0.905959 0.0240246 -3.15591e-22)
(1.21981 -0.155205 -3.19922e-20)
(1.01355 0.0417416 0)
(1.04556 -0.0467178 -4.4497e-21)
(1.11802 -0.334774 -6.38554e-20)
(1.15302 -0.0650117 -8.06576e-21)
(1.13995 0.0344919 1.95724e-22)
(1.33375 0.486985 2.62563e-20)
(1.11301 -0.042527 0)
(1.01816 0.283449 -1.78911e-19)
(1.29788 0.00556507 1.33043e-20)
(0.750961 0.0268752 0)
(0.848683 0.040139 -1.00169e-20)
(0.96776 -0.11106 4.63755e-21)
(1.11377 -0.0781371 5.33158e-21)
(1.19054 0.0207551 1.17286e-21)
(1.26042 -0.244781 0)
(1.35837 0.265715 0)
(1.08577 0.00319789 -1.9106e-20)
(1.39972 0.01158 2.78979e-20)
(1.08529 -0.0160343 1.69025e-20)
(1.31976 -0.134253 -1.0523e-21)
(0.966406 0.0270816 1.66015e-20)
(1.00442 -0.0236135 0)
(1.10698 0.0164538 1.7064e-21)
(1.33836 -0.108522 -7.64145e-20)
(0.767526 0.0228884 -3.69717e-21)
(1.26706 -0.0221531 0)
(1.33879 -0.095075 0)
(1.42572 -0.141765 -3.84601e-20)
(1.11346 -0.060581 -4.75177e-21)
(1.12634 0.0148639 -1.17928e-22)
(0.945351 0.0256621 1.42067e-20)
(1.18222 0.0334573 -2.30116e-22)
(1.34457 0.0511933 -2.8863e-20)
(1.00181 0.00459423 1.34532e-20)
(1.40243 0.0220221 0)
(0.732053 -0.178293 0)
(1.08322 0.0315415 7.81012e-21)
(1.19743 -0.2216 -1.10161e-20)
(1.27325 0.0437215 9.01191e-21)
(1.04893 0.0487718 -1.21629e-19)
(1.14473 0.0409826 -3.08622e-21)
(1.12449 -0.0693889 8.55938e-21)
(0.793177 0.016421 0)
(0.916454 -0.0444089 7.84036e-20)
(1.13539 0.0327724 -7.8283e-21)
(1.4197 -0.279152 -1.30786e-20)
(1.11546 -0.045212 -8.84455e-21)
(0.931012 0.0161811 2.52095e-21)
(-0.113779 -0.0727214 0)
(0.857234 -0.0156731 1.85144e-21)
(0.785441 0.0248499 0)
(1.05937 0.00303362 -1.14338e-22)
(1.01282 0.0275884 0)
(1.31738 0.306724 1.02013e-20)
(1.03319 -0.0563013 -3.73443e-20)
(1.18107 0.00497126 5.17184e-21)
(1.15011 -0.056507 0)
(1.092 -0.0243736 0)
(0.551859 -0.117372 0)
(1.11511 -0.0299892 -5.22871e-21)
(1.25982 -0.0506812 6.23539e-21)
(1.0683 0.112906 -3.18171e-20)
(0.850212 -0.00480299 0)
(1.09443 0.0287171 -2.03554e-21)
(1.17513 0.0674476 -2.1378e-21)
(1.27073 0.0191699 1.57907e-21)
(0.985974 0.0294047 5.43346e-21)
(1.12435 0.0114767 9.88638e-23)
(0.0239394 0.0348394 0)
(1.09697 -0.0197125 -1.8789e-20)
(1.22723 0.215605 -2.94745e-22)
(0.717782 0.0218911 -5.14662e-21)
(1.26169 0.14766 1.55938e-21)
(0.987629 -0.165798 6.59184e-22)
(1.04508 0.0158082 1.97197e-20)
(0.991065 0.0286831 0)
(1.12035 0.0709748 1.92411e-21)
(0.859627 -0.177882 0)
(0.940496 0.0273381 1.07222e-20)
(0.972064 0.286497 1.43435e-19)
(0.968949 0.0315614 0)
(0.819082 0.105222 0)
(-0.137907 -0.0341316 -7.73874e-20)
(1.32988 0.104493 -1.43351e-20)
(0.678994 -0.0192594 0)
(1.41779 -0.0205743 0)
(1.23235 0.156867 0)
(1.32652 0.0522278 1.49376e-20)
(-0.0313904 -0.0940165 0)
(-0.0565372 0.0713392 3.90715e-20)
(0.939667 -0.0951628 6.0852e-20)
(0.998738 0.0380958 1.61299e-21)
(0.856312 0.00124939 0)
(1.02284 -0.0225665 1.38016e-20)
(0.882951 0.0256911 0)
(0.695256 -0.0765932 -6.57667e-20)
(1.01737 0.0303528 1.59999e-20)
(1.08469 -0.061559 4.49227e-21)
(1.09144 0.0135183 8.8102e-21)
(1.01512 0.0700251 -1.16132e-20)
(0.674148 -0.223852 -6.56255e-22)
(1.13314 -0.347843 8.93177e-22)
(0.909514 -0.0281916 0)
(1.06711 0.00129523 -1.64318e-20)
(0.872231 0.0093401 -1.10898e-20)
(1.3872 -0.18805 1.59768e-21)
(0.706354 0.0297132 0)
(1.01582 -0.15141 0)
(1.08899 -0.0216554 3.41116e-21)
(1.39829 0.187928 1.18651e-20)
(1.10778 0.0257153 6.84289e-21)
(1.03729 0.0221429 2.1273e-20)
(0.749155 -0.127176 -5.50024e-20)
(0.812676 0.00225331 1.98644e-20)
(1.13484 -0.0191696 6.86272e-21)
(1.41909 -0.100972 -4.62297e-21)
(1.08351 -0.0474082 -6.92801e-21)
(1.35047 -0.0409631 3.96153e-21)
(-0.142207 -0.0307708 5.72015e-20)
(1.287 -0.00715672 0)
(0.619197 -0.0184 0)
(1.06477 -0.023244 -8.19502e-21)
(1.09397 0.0173372 9.49529e-21)
(0.118957 0.0157526 0)
(0.873715 -0.0189417 5.13261e-22)
(1.08342 -0.00209775 -5.02377e-21)
(0.999739 0.0352786 2.76833e-21)
(1.07702 0.0343331 -7.21229e-21)
(1.00254 0.0196964 2.77057e-21)
(1.03116 -0.00995347 4.43154e-21)
(1.04211 0.0262875 0)
(0.293565 -0.042892 0)
(1.04594 -0.0617421 0)
(1.1985 0.0768281 -3.56883e-20)
(-0.0310974 -0.110635 4.18156e-20)
(1.12894 0.0262007 -2.4823e-23)
(1.14447 0.172137 0)
(0.740245 0.016125 -1.03213e-20)
(1.14872 -0.198723 2.86569e-21)
(-0.0123897 -0.0383818 -1.24444e-19)
(0.841421 -0.0726986 -5.18855e-20)
(0.6273 -0.0173703 0)
(0.935389 -0.199737 0)
(0.948664 0.0457662 1.02693e-20)
(0.982909 -0.123041 4.55628e-21)
(1.29142 0.387326 4.15709e-21)
(1.08398 -0.104218 -3.82903e-22)
(1.07372 -0.0158423 -5.99963e-21)
(0.977521 -0.247618 0)
(1.3754 0.410007 -4.89337e-20)
(0.679 -0.0163077 0)
(0.812808 -0.0231849 -5.4461e-21)
(1.03911 -0.0270654 3.04286e-22)
(0.59592 0.0158893 0)
(1.10094 -0.0059335 0)
(0.204851 -0.14444 -5.12361e-20)
(0.947445 0.133816 -1.91009e-20)
(0.724603 -0.0238927 2.64613e-21)
(0.990517 -0.00269381 0)
(0.565679 -0.0193856 0)
(0.771661 -0.0221084 -4.8643e-21)
(0.536392 -0.0197286 -4.72255e-22)
(1.28111 0.0184508 1.67358e-22)
(1.2028 0.0916497 -6.86388e-21)
(0.719204 0.0173573 -2.93599e-21)
(1.07572 -0.0221234 5.56711e-22)
(1.00951 -0.0393865 3.60842e-22)
(0.565622 0.0133646 7.7152e-21)
(1.13991 -0.0126096 8.53632e-22)
(1.0945 0.0591607 0)
(0.887565 -0.119985 0)
(0.515424 0.0174215 0)
(1.03736 -0.011446 0)
(1.22325 0.0725443 -1.30328e-21)
(0.935651 0.0346937 0)
(1.143 0.0163699 0)
(1.05777 0.0536532 0)
(1.11746 -0.0694274 0)
(-0.0138224 -0.0275531 3.8973e-20)
(1.32099 0.0657913 5.27911e-22)
(1.13609 0.00681898 0)
(1.3927 0.0922981 1.95348e-20)
(1.28247 -0.000255303 2.47286e-22)
(1.09035 0.0399526 4.43743e-21)
(1.23019 0.0752962 3.40176e-21)
(1.23544 0.116523 0)
(0.601257 -0.01264 1.05396e-20)
(1.05147 0.037718 1.1295e-20)
(1.11569 0.176892 0)
(1.15077 -0.105857 -3.38892e-21)
(1.22055 -0.0773662 2.40656e-21)
(0.345063 0.0992759 -8.38934e-21)
(1.1242 0.0593151 4.34986e-21)
(1.22005 -0.133493 -2.5554e-21)
(0.859512 -0.0898904 0)
(1.24344 -0.077429 -1.79179e-20)
(0.979926 -0.117615 -7.46961e-21)
(0.849978 0.0954472 -5.40671e-21)
(0.796325 0.22084 0)
(-0.0252095 -0.0196656 0)
(0.979738 0.115419 -1.75509e-20)
(1.17709 -0.0555337 0)
(1.25457 0.00973869 -4.81251e-22)
(1.12843 -0.0430641 1.69775e-21)
(1.23035 -0.158219 2.45676e-21)
(1.14368 -0.0455355 -1.8637e-21)
(1.39127 -0.0845322 1.14767e-19)
(1.01426 -0.321112 6.44663e-20)
(1.17734 -0.00987185 -8.96375e-22)
(0.999197 0.209953 0)
(0.721046 -0.0164593 0)
(0.908331 0.00581845 -3.37629e-20)
(1.11757 0.047443 -1.77768e-22)
(1.28243 -0.0409554 0)
(0.607579 -0.205661 -8.748e-21)
(0.36881 -0.189742 0)
(0.718713 0.227177 1.24054e-21)
(0.915255 -0.0111549 1.02677e-20)
(0.829295 0.0296374 -6.4303e-21)
(1.18176 0.0776707 0)
(1.14955 -0.0694966 -1.98029e-21)
(1.02349 0.0342895 7.10748e-21)
(0.686415 0.280389 -8.52952e-21)
(1.25288 -0.00372156 -3.25709e-21)
(0.905657 0.268448 0)
(1.08953 0.0658778 0)
(1.05405 0.175764 2.17516e-21)
(0.825121 0.229598 -1.25313e-21)
(1.20921 -0.0867179 1.08253e-20)
(1.20806 -0.0276975 -4.67372e-21)
(0.895166 0.0833067 1.1849e-21)
(1.18322 -0.0509988 0)
(0.402552 -0.136148 1.19376e-20)
(1.30302 0.0520366 -1.69118e-20)
(1.03769 0.185516 5.40725e-21)
(0.179277 0.172981 8.86948e-21)
(1.43557 -0.161685 2.06172e-20)
(0.835339 -0.138908 5.36867e-20)
(1.22016 0.0849143 -2.20856e-21)
(1.17786 -0.0244374 -1.36189e-21)
(-0.0550172 -0.13755 -7.12728e-21)
(1.00122 -0.0069727 0)
(1.03571 -0.0875061 -1.72181e-20)
(0.852294 -0.0295222 1.1112e-20)
(1.10529 -0.049649 5.28536e-21)
(0.696293 0.147655 -1.34365e-21)
(0.51361 -0.0150938 6.38861e-22)
(1.40452 -0.391606 -1.4754e-20)
(1.15026 0.0589661 0)
(1.04792 0.0402933 -1.79307e-21)
(1.14164 0.0433599 -2.44397e-21)
(1.32923 -0.123212 0)
(0.758681 -0.00368444 1.15224e-20)
(1.15291 0.0453715 3.42576e-21)
(0.640176 0.0800975 2.16105e-20)
(1.15935 -0.014615 -6.01518e-21)
(0.958301 0.0756193 -6.58197e-21)
(-0.0431596 -0.0398126 0)
(0.310001 0.381444 -2.6711e-21)
(1.14941 0.0674554 0)
(0.903091 0.14393 -1.32031e-20)
(0.701001 0.0942814 0)
(1.12249 -0.00092512 5.20244e-21)
(1.01593 0.0247804 0)
(1.159 0.0029523 0)
(1.4167 -0.146522 1.93135e-20)
(0.794446 -0.0813513 0)
(1.19956 -0.216296 1.25909e-20)
(1.08881 -0.024779 -3.95486e-23)
(1.07494 0.0599364 2.93687e-21)
(1.22558 0.000909346 8.22978e-23)
(1.2346 0.102865 -7.45903e-21)
(1.09559 0.0298285 3.30675e-20)
(1.22348 0.0661325 0)
(1.2347 -0.0760625 0)
(1.18109 0.0476735 1.31454e-21)
(1.20701 0.00256349 0)
(1.44924 0.169753 -3.08454e-20)
(0.610659 -0.101219 9.92661e-22)
(1.02636 0.0151144 2.10742e-20)
(1.2503 0.0855697 -2.22618e-22)
(-0.0166498 0.0131107 0)
(-0.0223517 -0.0500656 0)
(0.156605 -0.189389 -3.97499e-20)
(-0.0472841 -0.162147 0)
(0.567115 -0.208049 -1.35498e-20)
(1.1909 0.0350742 -3.2227e-21)
(1.18357 -0.119694 -3.4289e-21)
(1.328 -0.0256355 1.81913e-21)
(1.20205 0.00291925 0)
(0.687638 -0.00938821 -2.25131e-21)
(1.22312 0.0298731 0)
(1.19606 0.0435258 1.26599e-21)
(0.485465 -0.109007 0)
(0.676546 -0.235018 -3.58569e-22)
(1.17607 0.00610734 0)
(1.09931 0.0255267 0)
(0.972285 0.140555 7.73875e-20)
(0.623573 -0.284371 -5.79508e-22)
(0.789021 -0.174531 -4.67548e-21)
(1.01062 0.0184039 -1.09379e-20)
(0.133718 -0.13701 0)
(1.17431 -0.110525 -2.84635e-20)
(1.1633 0.0747948 9.57042e-22)
(1.01558 -0.0974698 -3.02239e-21)
(0.851178 -0.233694 -3.89304e-21)
(-0.054614 -0.0785056 -9.06935e-20)
(1.13195 0.0060125 0)
(-0.0391566 0.0523518 0)
(1.1311 0.0441249 1.08312e-20)
(0.657817 -0.215906 4.1904e-21)
(1.08438 0.0402615 -9.76587e-21)
(1.13077 -0.0401178 0)
(1.16108 -0.115764 2.65973e-21)
(1.11447 0.0370228 -1.83715e-21)
(0.500348 -0.0586255 -7.54272e-21)
(1.14621 -0.0298243 -3.94335e-21)
(1.20424 -0.0854546 -2.71695e-22)
(0.117221 0.434187 -6.62802e-21)
(1.31549 -0.121518 2.97745e-21)
(1.11021 0.0490182 0)
(1.16796 -0.0119825 0)
(1.22143 -0.00723008 2.6787e-22)
(1.12091 0.0767876 -8.6499e-22)
(0.379543 0.104869 -9.44057e-21)
(1.1916 -0.124424 -2.32711e-20)
(1.09264 0.0376796 1.29453e-20)
(0.52474 -0.00384173 1.23496e-20)
(0.560803 -0.0728946 -1.40468e-19)
(-0.264628 0.206263 5.27835e-21)
(1.17816 0.171963 -6.82916e-21)
(1.22541 -0.49375 2.63157e-21)
(1.39485 0.114774 -1.82286e-20)
(1.22508 -0.0243036 -3.17436e-22)
(0.935394 -0.228217 9.79801e-20)
(0.151075 0.173271 0)
(1.11734 -0.0522085 -1.09593e-21)
(0.343843 0.443731 -1.42239e-20)
(1.12164 0.0121167 -9.37245e-21)
(1.1043 0.0585991 9.16193e-21)
(1.10687 0.0426502 0)
(0.837101 -0.132264 0)
(1.16965 -0.0457925 0)
(1.11225 0.0928162 6.51718e-21)
(1.26727 0.0034624 -2.11919e-20)
(1.16991 -0.042856 4.11952e-21)
(0.469698 0.0181013 0)
(0.619397 0.0145114 0)
(0.619003 -0.00584361 2.86989e-22)
(0.443728 -0.0165995 0)
(1.0974 0.016625 0)
(1.02163 -0.0108738 2.93825e-20)
(0.483125 0.145986 0)
(0.932237 0.0137576 0)
(1.11297 -0.0813371 0)
(1.17685 0.178298 -1.58915e-21)
(1.22844 0.0794301 7.66227e-21)
(0.968111 -0.0291698 8.26129e-21)
(1.27455 -0.403589 -9.26548e-20)
(0.611442 0.139649 1.11593e-20)
(1.35303 -0.0114275 3.53218e-21)
(1.31687 -0.166913 0)
(-0.198368 0.094222 0)
(-0.277907 -0.230682 0)
(1.16294 -0.0235487 3.78432e-21)
(1.31593 -0.295005 -9.14509e-21)
(1.25656 0.144562 0)
(1.11885 0.0396369 -9.14676e-21)
(0.171762 -0.0615585 0)
(1.50925 -0.190904 5.86385e-20)
(0.417501 0.527524 1.06606e-19)
(0.236537 -0.0466579 0)
(1.07913 -0.280187 9.9451e-20)
(0.729917 0.164276 0)
(-0.0409158 0.327297 1.59049e-20)
(1.29548 0.135551 0)
(0.0283856 -0.179647 -6.98181e-21)
(0.983952 -0.0498454 0)
(1.26802 0.018957 3.89943e-22)
(-0.148849 -0.138771 -7.08492e-21)
(1.12482 -0.0182083 2.97839e-21)
(1.22713 -0.219278 -2.07757e-21)
(0.567553 -0.506408 -9.48215e-20)
(1.20541 -0.0338267 -1.00231e-21)
(1.19631 -0.130607 7.48874e-21)
(1.18734 0.236589 -1.56309e-20)
(1.15346 0.0834258 -4.29778e-21)
(1.14905 -0.00110696 1.16672e-21)
(-0.278392 -0.279592 -3.66955e-20)
(0.0907727 0.0205333 -8.95952e-21)
(1.24237 -0.0663976 1.02218e-21)
(1.06041 -0.0460857 0)
(0.447821 -0.359345 -4.85633e-21)
(1.38937 -0.447592 6.52635e-20)
(0.893913 -0.0929293 -4.58361e-20)
(1.44732 0.0952086 8.63096e-20)
(1.08425 -0.057527 4.98072e-21)
(1.26514 -0.194596 -2.18479e-22)
(1.06221 -0.00853132 0)
(1.18174 -0.00127656 0)
(1.31713 -0.0185636 3.90014e-21)
(1.08736 -0.0207864 -4.37573e-21)
(1.20649 -0.0312828 4.45825e-21)
(1.09928 0.0191072 -9.01262e-21)
(1.47189 -0.00933438 -4.92441e-20)
(0.52447 0.0219523 0)
(1.35073 -0.144523 -8.78865e-21)
(1.33048 0.173441 0)
(1.10901 0.0253296 -7.38961e-21)
(1.13558 0.0213593 0)
(1.04145 -0.008785 1.59171e-20)
(1.21525 0.0317843 1.0906e-20)
(1.19951 -0.157722 0)
(0.0453742 -0.0307547 1.34181e-19)
(0.883086 -0.20637 -7.68477e-20)
(1.38873 -0.0036695 -3.50212e-20)
(-0.122385 -0.101495 4.14549e-20)
(1.18677 0.0411467 2.47072e-22)
(0.718371 -0.187136 6.69359e-21)
(-0.114005 -0.0493137 -4.32288e-20)
(-0.032688 0.035368 -2.88521e-20)
(1.01771 -0.0292471 0)
(-0.0229374 -0.0235008 0)
(1.28326 0.197175 0)
(0.111077 -0.0962474 0)
(1.11714 -0.0234508 0)
(0.120669 0.0299343 0)
(1.0919 0.0530099 0)
(1.14814 0.301321 0)
(1.20453 0.0747204 -8.73079e-21)
(0.564932 -0.281042 -1.84438e-20)
(-0.248335 -0.0741564 0)
(1.10059 -0.115358 4.76962e-20)
(1.28314 -0.0367234 -1.96816e-21)
(1.47064 0.164653 0)
(-0.0369686 -0.036661 0)
(1.14736 0.0133744 -8.56905e-22)
(1.15432 0.000436433 2.63987e-22)
(1.17857 0.386715 0)
(0.194201 -0.0942817 4.51227e-20)
(1.11599 0.054132 1.23886e-21)
(0.221658 -0.0516823 -4.60223e-20)
(-0.05995 0.0575639 -3.84265e-20)
(-0.0268637 0.0496153 9.75468e-20)
(0.776316 0.338132 2.11819e-20)
(1.1637 -0.232404 -6.29928e-21)
(1.10276 0.0434821 -1.26838e-20)
(1.02282 -0.00866489 0)
(1.06996 -0.0692973 -2.47948e-20)
(1.18766 0.112621 -8.23508e-21)
(-0.00836866 -0.0104982 9.52847e-20)
(0.978955 -0.0693706 -6.24048e-20)
(0.507273 -0.191622 9.21022e-21)
(1.04389 -0.148357 -5.61483e-21)
(0.063363 -0.0316051 2.79771e-20)
(0.23071 -0.0394289 -4.08023e-20)
(0.34447 -0.073199 -4.08884e-20)
(1.09879 0.0481859 1.59772e-20)
(-0.0516253 -0.0253124 0)
(0.779827 -0.174379 1.36748e-20)
(1.31016 -0.196091 -2.16653e-20)
(1.22219 -0.0745403 2.08885e-20)
(1.34626 0.013596 0)
(1.51158 -0.242334 5.63205e-20)
(1.13484 0.00549844 -4.47906e-21)
(-0.00839785 -0.021902 -3.10868e-20)
(0.416324 0.0212511 0)
(0.932401 0.0251639 -3.98447e-21)
(1.12082 0.0331148 1.24754e-21)
(0.366595 -0.00141725 -8.95125e-22)
(1.14822 0.0100416 4.59426e-22)
(1.11381 0.0446204 0)
(1.11665 -0.179083 -1.23979e-20)
(-0.0839155 -0.170462 -5.71045e-20)
(1.32594 -0.018973 2.2407e-20)
(1.10754 0.171829 -9.17365e-21)
(1.12873 0.0145664 1.03076e-20)
(-0.0324342 -0.0361729 1.29575e-20)
(-0.0338323 0.056257 -7.40928e-20)
(0.860059 -0.0347979 0)
(0.997846 0.3333 0)
(1.149 0.0855726 -1.45014e-20)
(1.05211 0.064853 1.20152e-20)
(1.16323 0.0393412 0)
(0.550046 -0.150275 5.00074e-20)
(0.809439 0.0678097 -1.37985e-20)
(1.09916 0.0976011 0)
(1.12396 0.0225746 0)
(1.36919 0.289248 0)
(1.15214 0.0956368 0)
(1.3391 0.0399548 -3.76825e-22)
(-0.0422831 0.0501782 4.19749e-20)
(1.10797 0.0411682 7.75415e-21)
(1.3968 -0.218244 -6.4948e-20)
(1.35636 0.103504 -1.03644e-21)
(-0.138584 -0.193305 0)
(1.21218 -0.260276 0)
(0.632287 -0.014928 -8.35655e-22)
(0.587454 0.0044734 -6.8899e-20)
(0.0909831 0.033094 5.52935e-20)
(0.960136 0.0325004 2.71664e-21)
(0.725579 -0.269684 0)
(0.655093 -0.0924518 0)
(1.28433 0.140449 0)
(0.549077 0.522684 2.8085e-20)
(-0.0256136 0.0417065 -3.30059e-20)
(1.05705 -0.0605286 5.38657e-21)
(-0.0164395 -0.0420131 5.75166e-20)
(1.12366 0.00743698 4.21955e-21)
(1.17997 0.307793 2.98116e-20)
(1.11431 -0.0949407 1.05587e-20)
(0.119631 -0.222413 4.82495e-20)
(0.950811 -0.205981 4.50307e-21)
(1.24893 -0.272364 0)
(0.578671 0.278246 0)
(1.01694 -0.133878 -6.40799e-21)
(-0.196262 -0.130972 0)
(0.611844 0.0268347 3.12886e-21)
(0.594303 -0.410859 -2.45353e-21)
(0.264081 0.0493174 -1.25892e-19)
(1.11812 -0.227919 4.08332e-20)
(1.04592 0.366672 9.69952e-21)
(0.978155 0.0229746 0)
(1.16137 -0.0965404 6.43909e-22)
(0.652542 0.0174725 0)
(0.977817 -0.0182561 -3.54844e-22)
(0.407645 -0.0226047 0)
(0.71158 0.13842 0)
(1.00098 -0.0189893 -6.14017e-21)
(1.44734 0.136124 -1.60786e-20)
(1.12901 0.0134974 4.18881e-21)
(0.514866 -0.483931 0)
(1.13126 -0.156751 4.4017e-21)
(0.807799 0.382941 6.8751e-20)
(-0.0283744 0.0210762 1.37891e-21)
(1.19701 -0.000559692 4.57731e-21)
(1.19608 0.0265718 -7.92009e-21)
(1.13476 0.0824051 1.33972e-21)
(0.793204 0.00996483 -3.97745e-21)
(0.0809393 0.0167621 4.41754e-20)
(-0.0216028 -0.0112906 -5.39945e-20)
(-0.221874 -0.195995 0)
(-0.256653 -0.0809406 0)
(1.17166 -0.611692 2.77307e-20)
(1.14633 -0.0208553 -1.13847e-21)
(0.872552 -0.459104 -3.53988e-20)
(0.865317 -0.060517 -2.79996e-20)
(1.39567 0.172816 4.02881e-20)
(0.617277 0.429359 0)
(0.249281 0.422994 -1.12022e-19)
(0.600051 0.488728 0)
(0.0798808 -0.10939 0)
(1.11569 -0.477679 0)
(-0.0600691 0.0232967 -8.96796e-22)
(1.19522 -0.00419318 0)
(0.979036 0.336395 -2.2979e-20)
(0.603616 0.702421 2.11183e-20)
(1.19914 0.244151 -4.33494e-21)
(-0.0317632 -0.0917192 -8.92228e-20)
(0.718627 0.318369 1.76267e-20)
(0.4778 0.148547 -1.50435e-20)
(1.19268 0.0729517 0)
(1.38048 0.341253 4.37171e-20)
(1.23654 0.565043 1.27824e-20)
(0.200018 -0.0239084 -2.67613e-20)
(1.08089 0.0867979 3.95003e-20)
(0.927412 -0.0140439 1.0184e-21)
(0.933332 0.0415644 -8.71531e-22)
(-0.0148884 -0.02433 0)
(0.639389 -0.641689 -3.24556e-20)
(0.614599 0.210019 0)
(0.0771916 -0.18306 0)
(-0.0549855 0.0840734 0)
(0.00178243 -0.151946 -3.32292e-20)
(1.21139 0.00767996 -5.28972e-21)
(-0.00863828 0.0729358 0)
(-0.0462665 0.0762809 0)
(1.4275 0.0775675 -8.12604e-20)
(-0.034295 -0.061733 4.04685e-20)
(0.116142 0.240896 -1.00197e-19)
(0.437993 0.0110832 0)
(0.166509 -0.269051 8.32859e-20)
(1.06197 -0.241944 0)
(0.99369 -0.281223 0)
(0.00276931 -0.108076 8.3445e-20)
(1.13825 0.031094 -1.46951e-22)
(1.13466 0.339652 2.5946e-20)
(0.293156 0.0255933 5.27712e-20)
(0.397772 -0.508028 -4.27392e-20)
(1.34272 0.0249755 0)
(1.27244 0.170785 2.5867e-20)
(1.2574 0.194616 -3.17622e-20)
(0.103208 0.0967208 -2.3453e-20)
(-0.0767937 -0.0261533 0)
(1.07063 -0.0526946 -2.02785e-20)
(1.09707 -0.221187 -2.00325e-20)
(0.577915 -0.393672 0)
(1.09568 -0.151847 -2.89124e-20)
(-0.160552 -0.101684 0)
(0.689957 0.0232822 0)
(1.48698 0.0785321 4.41009e-20)
(1.0078 0.0219205 6.44633e-22)
(1.08855 0.748143 -1.23319e-20)
(0.221796 -0.370185 1.38631e-19)
(1.1159 -0.00727288 -6.42463e-22)
(1.19777 0.0617091 2.12349e-22)
(-0.0626733 0.0802124 3.5109e-20)
(0.800492 0.743102 2.41212e-20)
(1.34042 -0.377925 -1.24743e-20)
(0.18734 -0.167799 1.03125e-19)
(1.10445 0.0551759 0)
(0.195008 -0.224151 -7.83637e-21)
(0.884614 -0.627076 2.21301e-21)
(0.919103 0.650932 -2.54943e-20)
(0.515948 -0.0418109 -5.19796e-20)
(1.13529 -0.00359125 -7.37771e-21)
(1.07725 -0.0854438 8.54593e-21)
(1.12222 0.0563922 4.46098e-21)
(1.10622 0.115869 3.37325e-21)
(1.12879 -0.12963 0)
(0.963279 0.0936956 1.74448e-20)
(0.912593 0.465939 0)
(1.17314 0.115804 -3.55344e-21)
(1.16321 0.100408 -2.6197e-22)
(0.784175 0.268113 0)
(0.555276 0.111156 1.2007e-19)
(0.904059 0.719527 -8.36137e-22)
(1.08463 0.288305 -1.99262e-20)
(1.04329 -0.0112786 1.44131e-20)
(0.418676 0.501239 0)
(1.28576 -0.475349 0)
(0.522155 -0.238042 2.88444e-21)
(1.28773 0.50265 0)
(-0.00748456 0.0601512 -5.12887e-20)
(1.27393 -0.416143 5.87481e-21)
(1.17563 0.507278 0)
(0.453548 0.227595 1.68716e-19)
(1.15745 0.315453 -1.35328e-19)
(0.807912 -0.630863 -2.91095e-20)
(1.12907 0.0607993 -3.52039e-22)
(0.960059 0.149222 9.36258e-20)
(1.09322 0.164467 4.77763e-20)
(1.0864 0.709311 -1.32648e-21)
(0.897232 -0.430538 7.06829e-20)
(1.42408 0.143686 4.55386e-20)
(1.12189 0.00567326 -1.16415e-21)
(-0.00872948 -0.04 7.29392e-20)
(1.07004 -0.695763 1.43011e-20)
(0.861601 -0.710409 6.20724e-20)
(0.247774 -0.319068 0)
(0.970375 -0.143055 7.74463e-20)
(0.364738 0.318255 -4.37908e-19)
(-0.142091 -0.226965 2.51137e-20)
(0.310428 0.034262 2.79753e-20)
(0.647679 -0.0622581 -6.21962e-20)
(1.08988 0.531079 0)
(0.997477 0.223747 7.80684e-20)
(1.08374 0.0294274 3.57642e-21)
(0.917805 0.446984 -8.8641e-20)
(0.769988 -0.714289 -1.01484e-20)
(0.924524 0.0289784 -4.97301e-20)
(0.984392 0.492226 0)
(1.0707 0.21428 -3.57443e-21)
(1.36871 -0.51663 1.01137e-20)
(1.22152 -0.341857 7.79155e-21)
(-0.257472 -0.240733 3.52475e-20)
(0.193806 0.0164624 -1.82643e-20)
(0.974412 -0.113857 -5.95749e-20)
(0.357828 0.535476 0)
(0.914769 0.0229553 3.96244e-20)
(1.17712 0.64014 9.03819e-20)
(-0.0604992 -0.205786 1.21996e-19)
(-0.0825435 0.0448141 -2.91273e-20)
(-0.0807402 -0.112368 3.84832e-20)
(1.09312 0.0181923 -4.81507e-21)
(1.11303 -0.458301 0)
(1.0569 -0.727848 -5.29448e-20)
(0.702405 0.35718 0)
(0.0390946 -0.212256 -8.46745e-20)
(1.15015 0.0165598 6.07884e-21)
(-0.0309422 -0.0757213 -2.48963e-20)
(1.0492 0.0518364 -1.21001e-20)
(0.13382 0.0309263 6.64434e-20)
(0.900912 0.121323 0)
(1.41887 -0.0307555 4.8137e-20)
(0.0873768 0.041826 -3.17597e-20)
(-0.376038 -0.208892 -4.18173e-20)
(-0.237863 -0.207617 0)
(0.0640751 -0.00935852 0)
(1.37455 0.00988126 -1.19259e-20)
(0.355758 -0.0142083 1.27379e-19)
(1.25324 -0.722139 -8.74634e-21)
(0.769555 -0.163469 1.22198e-21)
(1.07875 0.249353 -2.79536e-20)
(0.36209 -0.544103 1.45229e-19)
(1.56314 0.247586 -4.04893e-20)
(0.0439285 -0.0729626 2.7658e-20)
(0.20991 0.317099 1.95258e-19)
(0.0637273 -0.0379717 -1.05134e-19)
(0.937362 -0.486786 -4.58271e-20)
(1.4762 0.374607 4.08932e-20)
(0.557832 -0.664205 5.25912e-20)
(1.10616 -0.0797525 -8.20033e-21)
(0.241939 -0.126062 4.57514e-20)
(1.22564 0.284665 -5.58181e-20)
(0.66864 0.648801 -3.92554e-20)
(1.32069 -0.621285 0)
(1.44707 0.514414 3.79456e-20)
(1.04503 -0.523525 -1.19155e-20)
(1.41018 0.604631 -1.15169e-19)
(1.16725 0.0544009 0)
(-0.0540403 0.0945282 0)
(1.26665 0.731586 0)
(1.10782 0.101896 -9.22053e-21)
(0.735367 -0.292944 -2.12731e-19)
(0.474805 -0.0738724 0)
(-0.0574973 0.0920084 -2.97504e-20)
(1.01552 -0.242459 1.0858e-19)
(-0.356685 -0.0717621 0)
(0.321674 0.0366065 1.23402e-20)
(1.12336 0.049099 0)
(1.44876 0.254442 0)
(1.16946 0.0565739 3.76947e-22)
(0.357795 -0.280678 0)
(1.01805 0.15082 3.62827e-20)
(1.33908 0.272939 0)
(-0.114878 0.0322152 -1.95601e-21)
(0.808697 -0.387547 0)
(1.52968 0.315375 -6.0685e-20)
(1.25202 0.361567 -3.62837e-21)
(0.847968 0.65172 -9.48005e-21)
(1.01547 0.157368 -8.63427e-20)
(0.964251 -0.201211 -5.24608e-20)
(1.47246 0.274019 3.56022e-20)
(1.0675 0.0426125 0)
(0.563851 -0.06224 0)
)
;

boundaryField
{
    FrontBack
    {
        type            empty;
    }
    Top
    {
        type            noSlip;
    }
    In
    {
        type            fixedValue;
        value           uniform (1 0 0);
    }
    Bottom
    {
        type            noSlip;
    }
    Out
    {
        type            zeroGradient;
    }
    circle
    {
        type            noSlip;
    }
}


// ************************************************************************* //
