/*--------------------------------*- C++ -*----------------------------------*\
| =========                 |                                                 |
| \\      /  F ield         | OpenFOAM: The Open Source CFD Toolbox           |
|  \\    /   O peration     | Version:  2412                                  |
|   \\  /    A nd           | Website:  www.openfoam.com                      |
|    \\/     M anipulation  |                                                 |
\*---------------------------------------------------------------------------*/
FoamFile
{
    version     2.0;
    format      ascii;
    arch        "LSB;label=32;scalar=64";
    class       volScalarField;
    location    "30.9";
    object      p;
}
// * * * * * * * * * * * * * * * * * * * * * * * * * * * * * * * * * * * * * //

dimensions      [0 2 -2 0 0 0 0];

internalField   nonuniform List<scalar> 
808
(
0.120671
0.0256755
0.0395731
0.120234
-0.242937
0.02553
0.0168677
0.0262602
-0.132442
-0.0200185
0.0349143
-0.15228
0.0232376
0.0207373
-0.217997
0.0205275
-0.22611
0.0212892
0.0505279
0.0176473
0.0552323
0.395512
0.0873842
-0.000854786
0.474783
-0.170956
-0.0639689
0.011863
0.0230505
0.0287459
0.0193755
0.0255895
0.0281342
0.0211963
-0.0742141
0.635085
0.0242283
0.0356558
0.0246552
0.0226587
-0.0429799
-0.0628467
0.0475779
0.03137
-0.223733
0.104567
0.0312255
0.00436205
0.0220103
-0.171375
0.023719
0.0188797
0.0584287
0.0125072
-0.0559054
0.0200587
0.0103643
0.0355508
-0.0197476
0.0161103
-0.332874
-0.00170083
0.0322768
-0.161624
0.0343967
0.0583729
-0.272818
0.0265176
0.0486616
-0.295265
0.0280249
-0.334363
0.0233921
0.0279192
0.18079
0.0333153
0.00823016
-0.0372519
0.0212334
0.335014
-0.112078
0.0252107
0.0426475
0.274106
0.0382888
-0.011885
-0.375537
-0.0746087
0.0338348
-0.169884
0.0437056
-0.102369
0.273118
0.175213
0.0528817
-0.223677
0.021768
-0.140339
-0.104432
-0.213542
0.0262931
0.0137086
0.0446458
-0.00357451
-0.0494359
0.073471
-0.276776
-0.0110691
0.0181964
0.0233682
-0.0390529
0.351477
0.0245494
0.0209183
0.0278115
0.459804
0.0227278
-0.282123
0.0283106
0.0608567
-0.253503
0.0477938
0.0203913
0.0613417
0.129704
-0.0211223
0.106895
-0.0116866
0.0324037
0.0815818
-0.30797
0.023148
-0.034849
0.145737
0.0276035
0.0201552
0.0951529
0.0178961
0.0274429
0.0188244
-0.234672
0.0492105
0.0722199
0.0264628
-0.00305399
0.0564781
0.0983378
0.15863
-0.122137
0.0251959
0.02488
0.363628
0.0363266
0.55176
-0.25563
-0.0727766
0.0262209
-0.229429
0.0869297
-0.0966389
-0.31738
-0.241658
-0.316223
0.0258119
0.0740756
0.0292973
0.0283702
-0.335312
0.0196725
0.0343867
0.0445672
0.177591
0.0751933
0.117493
0.0301997
0.0728297
0.0852829
-0.152794
0.0299976
-0.363688
0.0305653
-0.105681
0.025121
0.264359
-0.280705
0.132914
0.0314286
-0.126078
0.0360902
-0.0863181
-0.238823
-0.0488683
0.02808
0.082712
0.0259513
-0.215829
0.02876
0.0239976
0.00383516
0.0980954
0.0694787
0.0226635
0.0300043
-0.342822
0.390114
-0.216079
-0.308801
0.0108692
0.0134623
0.0248468
-0.00339909
-0.415327
-0.270931
0.0282764
-0.00543427
0.0245587
-0.345125
-0.00512762
-0.0173404
0.0215026
0.00651131
-0.0532286
0.0291502
0.0276153
0.00662399
0.0314922
0.141375
-0.272626
-0.00754165
0.0210955
0.134234
0.0204307
0.0212497
0.0182721
-0.101639
0.00250779
0.00917414
-0.00115789
-0.0192347
0.0171015
-0.00315383
-0.00131501
-0.0037814
0.00537478
0.00236425
8.52133e-05
0.00808339
0.00475721
-0.00476311
0.0746084
-0.326091
0.00739813
0.0410087
-0.0487877
0.0175679
0.0122322
0.0252171
-0.00231735
0.0238828
0.145629
0.0107473
0.0201477
0.00985637
-0.0936722
0.0371074
0.0174464
-0.0123725
0.0363499
-0.00602233
0.0591901
-0.0201878
-0.415354
0.295505
0.0380239
-0.0847952
0.0164459
0.0310316
0.0227961
-0.167925
0.273671
0.0195439
0.00717714
-0.0432218
0.0885476
-0.250212
0.0326656
0.0800987
-0.0470074
0.0280533
0.0892204
0.0288393
0.0342592
-0.0112907
-0.00814553
0.0148938
0.0302745
0.0179215
0.0748053
0.0283625
0.0336329
-0.0112837
0.0261276
-0.0316959
0.0268943
-0.517452
-0.0817749
0.0599874
-0.086589
-0.172676
-0.328401
0.0529558
0.0255469
-0.312214
0.129607
0.158381
0.0285084
0.0290622
0.00912574
0.00672399
-0.22952
0.0461986
-0.00177923
0.0397708
0.0589632
0.0242726
0.0404405
-0.0204017
0.00561725
0.0356443
-0.273051
-0.00336839
0.027029
-0.0991209
-0.0751497
0.0215466
0.25073
0.0635374
-0.148908
0.555861
0.0303609
0.00658003
0.0363574
-0.0888674
-0.0247787
-0.0162669
0.0430579
0.0101194
0.0417299
-0.0499305
-0.200397
-0.0251398
0.123825
-0.0219808
-0.259397
-0.316648
-0.288251
-0.315164
-0.000314035
0.0284753
0.0289289
0.0323109
-0.0232408
0.0134274
0.0346618
0.00433992
-0.512682
0.0174316
0.024468
0.03105
-0.0109522
0.0361887
0.0259335
0.114709
-0.369792
0.0103583
-0.0154888
-0.00809218
0.106248
-0.282263
0.0123349
-0.254523
-0.0027266
0.068329
0.0365785
0.0212855
0.0353365
-0.0970298
-0.358335
0.0129354
0.0249379
-0.0621736
0.0555835
0.0067027
0.0216558
0.00485613
-0.00373189
-0.143615
0.0351392
0.0096951
0.0283554
-0.139775
-0.277048
0.0875918
-0.014449
-0.0314028
-0.0186908
0.426925
-0.223057
0.000356861
-0.0389852
0.0117722
0.0170475
0.034112
0.0826169
-8.35821e-05
-0.06942
-0.0350507
0.00368827
-0.00459298
-0.00676568
-0.0119206
-0.0117352
0.0204209
0.115874
0.0606796
0.0183261
0.0150509
0.0466255
-0.0212486
0.0362447
-0.384136
0.108356
0.0558481
0.0156859
-0.214287
-0.280621
-0.00888031
-0.0896663
-0.0310623
0.0344923
-0.392374
-0.237304
0.25842
-0.336326
-0.462705
-0.0363266
-0.120409
-0.0261352
-0.24474
0.358999
-0.0324774
-0.291639
0.0157986
0.0536282
0.575437
0.0169284
0.0127646
0.0733295
-0.0312253
-0.00262051
-0.400172
-0.216373
0.0315286
0.0655396
0.0410394
-0.26828
-0.327409
-0.1785
0.0292883
0.0550864
0.108747
-0.00496109
-0.0223312
0.0948378
0.0444474
0.0241042
-0.134549
-0.238498
0.0687982
-0.0266053
0.0222647
0.0246351
0.0819694
-0.0346314
0.0434849
-0.478188
0.456888
-0.153742
-0.276029
-0.00626557
0.00406218
-0.263062
-0.251529
0.121796
-0.345775
-0.052336
0.875745
0.0228462
-0.370982
0.0113511
-0.0361824
-0.0278528
-0.46242
-0.261602
-0.319829
0.0160434
-0.0547167
-0.375291
0.00169363
-0.0122528
0.131515
-0.340533
0.0469931
-0.511617
-0.266039
-0.32404
-0.0498884
0.0134143
0.00789177
0.122602
0.128821
-0.0106959
-0.277621
0.310176
0.0048541
0.00225955
-0.452474
-0.509276
-0.353712
-0.0386626
-0.362411
-0.00227116
0.113191
0.0837077
-0.0929931
-0.237261
0.0137347
-0.302436
-0.218035
0.00753281
0.00843172
-0.387209
0.00309021
0.053325
-0.392248
-0.322766
-0.0665338
0.125206
0.0300546
-0.338155
-0.247218
-0.17659
-0.0500321
0.0617761
0.119338
0.00864885
-0.253526
-0.234789
0.124389
0.0307003
-0.0552261
0.0377502
0.0557004
-0.272804
0.0172494
-0.273712
0.0634766
-0.336608
0.104531
-0.000343528
-0.302674
-0.391967
0.00190157
-0.478357
-0.472538
0.0531568
-0.0333101
-0.248433
0.029537
-0.288856
0.0165734
0.107789
0.0657253
-0.366695
0.021151
0.131292
-0.39753
0.0215258
-0.285772
0.0258587
-0.319564
-0.447136
0.0967799
0.29979
0.453061
-0.00852336
0.0019831
-0.000197566
-0.35626
0.662691
0.0283855
-0.163928
0.0251622
-0.073539
0.0801747
0.50945
-0.30848
-0.0382929
-0.0299575
0.0292329
0.0252161
-0.388368
-0.264803
-0.287181
-0.277496
-0.281373
0.010216
-0.364157
-0.0419413
-0.212418
-0.264739
0.539208
0.614359
-0.227677
0.107333
-0.25403
-0.0118589
-0.0763456
0.435829
-0.0266819
-0.330151
-0.0941501
-0.449086
-0.00390378
-0.151947
0.0163115
-0.254364
-0.209376
0.000470247
0.00204244
-0.33588
0.449104
0.696178
-0.343048
-0.249723
-0.342313
-0.0498607
-0.247748
-0.247019
-0.14349
-0.333082
0.777825
-0.281011
0.751729
-0.424656
0.330138
-0.326308
0.0186924
0.204864
-0.43784
0.220515
-0.216834
-0.253178
-0.281958
0.890148
-0.261375
0.21156
0.14651
0.649853
0.125358
-0.284517
-0.210936
-0.0920718
0.0136599
0.121263
0.523759
0.0121867
-6.98639e-05
-0.246803
0.153012
-0.129962
-0.181613
0.0327207
-0.280642
-0.165136
-0.114317
-0.384509
0.0183969
0.107385
0.0037057
0.0989625
0.107981
-0.270541
-0.307524
-0.0397032
0.0329289
-0.409113
-0.452191
0.20947
0.221497
0.0949266
0.693686
-0.0882545
-0.387453
-0.331768
-0.241731
-0.0669645
0.116738
0.783275
-0.391961
0.374982
0.00297832
-0.363218
0.180566
-0.0364877
0.38527
-0.114874
0.0301117
-0.348381
-0.0852399
0.191084
0.82438
0.338982
0.782296
-0.324424
-0.231486
-0.431866
0.199558
0.294092
0.0805276
0.409692
0.131606
0.510514
0.305865
-0.0730711
-0.19783
0.0195153
-0.313682
0.900322
0.418889
0.675356
0.528714
-0.221292
-0.330648
-0.250633
-0.290294
0.0655502
-0.415067
0.0973363
0.620372
-0.370763
0.00949409
-0.292875
0.210763
-0.268315
-0.306252
-0.0991647
-0.22353
-0.283189
-0.285138
-0.355924
-0.0733482
-0.43403
-0.141502
-0.395263
0.175264
0.660536
-0.170052
-0.340988
0.848772
-0.338138
0.285234
-0.186954
0.388413
0.091904
-0.325329
-0.336912
0.472368
-0.285667
-0.270618
0.185431
-0.228826
0.00146388
-0.24381
-0.0776664
0.0221392
0.576607
0.794185
-0.245108
0.227659
-0.293695
0.838939
0.00563393
-0.258674
0.000354862
0.774089
0.233313
-0.266554
-0.242573
0.457849
-0.165171
0.0713337
0.381447
0.279082
0.298398
-0.202157
-0.255884
0.70306
)
;

boundaryField
{
    FrontBack
    {
        type            empty;
    }
    Top
    {
        type            zeroGradient;
    }
    In
    {
        type            zeroGradient;
    }
    Bottom
    {
        type            zeroGradient;
    }
    Out
    {
        type            fixedValue;
        value           uniform 0;
    }
    circle
    {
        type            zeroGradient;
    }
}


// ************************************************************************* //
