/*--------------------------------*- C++ -*----------------------------------*\
| =========                 |                                                 |
| \\      /  F ield         | OpenFOAM: The Open Source CFD Toolbox           |
|  \\    /   O peration     | Version:  2412                                  |
|   \\  /    A nd           | Website:  www.openfoam.com                      |
|    \\/     M anipulation  |                                                 |
\*---------------------------------------------------------------------------*/
FoamFile
{
    version     2.0;
    format      ascii;
    arch        "LSB;label=32;scalar=64";
    class       volScalarField;
    location    "59.5";
    object      yPlus;
}
// * * * * * * * * * * * * * * * * * * * * * * * * * * * * * * * * * * * * * //

dimensions      [0 0 0 0 0 0 0];

internalField   uniform 0;

boundaryField
{
    FrontBack
    {
        type            empty;
    }
    Top
    {
        type            calculated;
        value           nonuniform List<scalar> 
15
(
142.2859099615611
133.5693814730407
138.06064601557
144.3917450293352
159.7602542381191
131.3664110361038
140.1208856087721
135.3428106037894
153.4516182250795
135.7234734457139
136.0802785867627
136.7760097025952
125.2580441306086
132.9092297120787
123.9552395319388
)
;
    }
    In
    {
        type            calculated;
        value           uniform 0;
    }
    Bottom
    {
        type            calculated;
        value           nonuniform List<scalar> 
15
(
155.5681738548808
158.1179695378791
141.0994179529762
142.0571642497403
141.1845457569486
148.4418820478107
142.7111380654608
143.1531830935096
143.4218851468952
134.0666767934765
125.7326834709016
141.5616302331706
122.407289336105
123.4863566653373
124.1370071682227
)
;
    }
    Out
    {
        type            calculated;
        value           uniform 0;
    }
    circle
    {
        type            calculated;
        value           nonuniform List<scalar> 
32
(
55.98544072904368
21.83562313523571
65.2024364225765
26.20282910481258
20.34963628541911
56.26285882143389
56.58296782397134
23.77254781174758
22.11246668567319
65.44343034676386
39.7671434044796
62.89013750136699
50.67198084496513
17.76773172615115
22.61495781024871
18.39212630914167
39.37230587788773
59.84803636756615
61.09150306346774
25.72852123695536
65.81844859719355
63.73388107760546
63.1219623650204
59.83725646469527
64.18589172984537
46.05298518798495
66.4844651048686
32.19262767594666
37.87229815304249
55.65819281985745
21.31266996958333
43.05707063801503
)
;
    }
}


// ************************************************************************* //
