/*--------------------------------*- C++ -*----------------------------------*\
| =========                 |                                                 |
| \\      /  F ield         | OpenFOAM: The Open Source CFD Toolbox           |
|  \\    /   O peration     | Version:  2412                                  |
|   \\  /    A nd           | Website:  www.openfoam.com                      |
|    \\/     M anipulation  |                                                 |
\*---------------------------------------------------------------------------*/
FoamFile
{
    version     2.0;
    format      ascii;
    arch        "LSB;label=32;scalar=64";
    class       volVectorField;
    location    "1541";
    object      U;
}
// * * * * * * * * * * * * * * * * * * * * * * * * * * * * * * * * * * * * * //

dimensions      [0 1 -1 0 0 0 0];

internalField   nonuniform List<vector> 
808
(
(0.7562694373549802 -0.0175113416414876 0)
(1.031564747181091 -0.01261282334676346 0)
(1.111102748503562 -0.005317530222653837 -1.718294143754216e-20)
(1.08512432184103 0.01258878003575264 0)
(1.362841381726132 0.01310574174173399 -3.825666711888564e-19)
(1.038753392238498 -0.009415488343741982 -7.319717151344803e-20)
(1.014454561930284 -0.02099443641833646 -2.434016729404244e-20)
(1.079248814819655 -0.00527820624656419 9.060241267159066e-21)
(1.254102708671072 -0.02142046557922017 6.268276639937642e-20)
(1.085310737712825 0.009668243904132883 0)
(1.007878551370446 -0.009222265615075836 0)
(1.305368291378103 -0.05440629100191113 -3.4720603253723e-19)
(1.086395806463206 -0.002002326487391787 2.045524810128887e-20)
(0.6752122787375394 0.006355413823220434 0)
(1.275576121922689 -0.1178851346884708 0)
(1.081702879686222 -0.0004395146796723469 -3.873866739759492e-20)
(1.224008782482098 -0.1458263464256253 -9.483924384713813e-20)
(1.074132662388938 -0.0003139991447507162 3.212668007385523e-20)
(0.9892294535006874 0.003727302104430787 0)
(1.026584083497066 0.009680621453378018 0)
(1.0325428950801 -0.01288047922604375 0)
(0.9875728520322806 0.04507935718191242 0)
(1.05108538005078 -0.006014411869661581 5.780788226776616e-20)
(1.053784430642069 0.008943208361820955 0)
(0.9332653706304781 0.1983469293435228 4.573046078340487e-19)
(1.162172932295937 -0.0861411611885495 0)
(1.185655307830893 -0.01965830938951565 1.545545917751718e-19)
(1.077280222694686 0.00965083769632798 5.231885446794134e-20)
(1.083633766747548 0.00215408558437598 5.122208164319212e-21)
(1.071743808145764 0.03090427386806847 0)
(1.075248551211564 0.002799125981552876 -1.182979957964575e-20)
(1.033238656197489 0.006763281460388973 -1.885290614881418e-19)
(1.060065179909008 0.01454014584882983 -2.351320466841426e-20)
(1.088800945994934 0.005656370786617877 -2.939051914543147e-20)
(1.12162038020295 0.03811625715412002 0)
(0.7549304526666366 -0.1222349913275946 -4.547638580093093e-19)
(0.9548038618413646 -0.005827354441234368 0)
(1.068757096080961 0.02221663555569422 0)
(1.068798671314606 0.007238788101096315 0)
(1.073786074636747 0.008757226545850285 -2.820590715239037e-20)
(1.093181503110462 0.02399461683044921 1.08388286422682e-19)
(1.150906595858069 0.002640602668666351 2.124480740750656e-19)
(1.095876875945393 -0.002257387486939705 0)
(1.015199802597694 -0.009284103901084419 0)
(1.130504041716738 -0.09276801903983793 -1.625381868136881e-19)
(1.04407693228219 -0.01166877927691601 -8.332384373809872e-20)
(1.058123736421188 0.02664239698506963 -2.683296157281616e-20)
(1.230599102927898 -0.1126356180636669 -5.564835960507134e-20)
(1.067487292131883 0.01201943293658496 -4.089013458470458e-20)
(1.257935178109209 0.01554617891141388 0)
(0.9969119029232243 -0.01925830840985357 2.214105200524635e-21)
(1.044753494153023 -0.002138860467761239 0)
(1.087495593456302 -0.002102403581255998 0)
(0.9991331615896419 0.007676198365871082 -1.873673145245206e-20)
(1.251121739637214 0.03307737214105382 -2.383596230738135e-19)
(1.063421463349679 0.01807969467610225 5.898722026922848e-20)
(0.9910552265523507 0.01129704334149013 0)
(1.01631872290365 -0.006398707447027554 2.508579095418859e-20)
(1.10759385558795 -0.001026171095883813 -1.16093601006798e-19)
(1.061135494561 0.03119587779578363 0)
(-0.08892932215468149 -0.002132126954444133 7.650920198411837e-20)
(1.154584787896362 -0.05230506496397387 -1.855887486248151e-19)
(1.00532137881072 -0.005614684886281994 -2.754981253702644e-20)
(1.188095836826136 0.06743282739126404 -1.210659572444348e-19)
(0.9972184910636055 -0.00963053424575204 3.102971133985319e-20)
(1.08423756335287 -0.005455726600480514 0)
(1.249320696104067 0.09387468803488107 0)
(0.6960853229517115 0.003167121149785158 -7.425642899901737e-20)
(0.9883323323983155 -0.01447234455397559 -3.232784388465113e-20)
(1.458782768440325 -0.01986248276064818 4.406301434863959e-19)
(1.060518895689904 0.007609960232148221 -6.551601124905228e-20)
(1.367112487957943 0.09344909599831437 2.8454866530398e-19)
(1.054854161445174 0.006824269994941165 -1.959295367955067e-22)
(1.080975588910026 -0.01394440490482463 -2.503841623202838e-22)
(1.16405318532039 -0.2359688545071404 0)
(1.022018724735179 -0.01509854778411181 0)
(1.017173838450491 0.0180630508184427 -3.007473741015107e-20)
(1.387362572903282 0.3486293426583296 4.219320454383213e-19)
(1.097425119827498 -0.04247793322753208 9.581751671377838e-20)
(1.046173194040644 0.2101658035438743 2.427930978123205e-19)
(1.123354224366989 -0.06071022692087272 1.176267517893385e-19)
(0.9219513990544822 0.005166161910322315 0)
(0.9753320877271748 0.01852118593618207 0)
(1.004023479319451 -0.04860234659875104 3.092096074794361e-21)
(1.009872487207899 -0.01362867019967341 7.824413804194146e-21)
(1.030356536219192 0.02687385607902012 1.357039963112778e-20)
(1.527787129495535 0.03387155019933301 3.21920786073884e-19)
(1.290019243378396 0.07026858016193083 5.620030996202759e-19)
(1.072422582912196 0.003109431287767733 -8.86616818800394e-20)
(1.194743121316592 -0.09483934419957604 0)
(1.033837899903451 0.001847113333898147 1.296073997476698e-19)
(1.165300871216988 0.02104949566835181 -3.140252509419052e-19)
(1.001489017747462 0.03249044850672211 0)
(0.9996271540662515 0.002010591399158497 0)
(1.044323382884418 -1.426803883648668e-05 7.982124728324785e-20)
(1.217883009695709 0.1081136442792564 4.093480221279118e-19)
(1.011134002968461 0.006975295449006982 0)
(1.090323960710888 -0.06785578815976397 -1.064238212214441e-19)
(1.151448657383006 0.03653722576575551 0)
(1.216408133739727 0.09222550405740583 -1.917757878622756e-19)
(1.108295093545621 -0.02890255272126995 -7.815478983704495e-20)
(1.027430847590663 0.01192502072138708 0)
(1.085103812614054 -0.004589123819690445 0)
(1.019264982024574 0.02645795060889014 7.869446130984109e-20)
(1.073135455943038 0.05662800621508248 -9.564835251657342e-21)
(1.103751022005415 -0.004182762747064553 6.419809306661028e-20)
(1.107769657524171 -0.0917549091138591 1.495966601910976e-19)
(0.9639677513591873 0.00309953733720246 0)
(1.065980044453042 0.03124767639051784 3.70279654544192e-20)
(1.168418377232591 -0.07685279215564865 2.268179409609017e-19)
(1.052019933369454 0.04727496838981354 -2.856233832240906e-20)
(1.022894514477103 0.0678486247080891 3.657526431135439e-20)
(1.090190929054669 0.02607002724962308 0)
(1.017783423823926 0.01476562381680085 0)
(1.028988704474162 0.009364862182856263 7.841720060893391e-20)
(0.9485514187325282 -0.03266678966664736 0)
(1.052834982902401 -0.005453077193969835 -7.45554107845916e-21)
(1.341462241769465 0.05614363740025891 -1.545974218675052e-19)
(1.079721695460588 -0.01314453726198962 2.667485810533156e-20)
(0.7440192487702962 -0.001728296449125742 0)
(0.5917313713001647 0.192273475480674 -1.12725969784997e-19)
(0.7061420890388426 -0.002485865221837854 0)
(0.6987887527098157 0.01463184888905982 0)
(1.0777073848765 0.00363464635335927 -6.497563154552132e-22)
(0.9906528844716275 0.01448333958508955 0)
(1.279481561098305 0.1220692634554639 2.543479515865266e-19)
(1.012254330248046 -0.02787084890924381 -7.452093972025894e-21)
(1.044778318698549 0.01699105617752811 1.513633246525154e-21)
(1.058646370581288 -0.01204376700003629 0)
(1.126568171230566 -0.009134287306524592 -5.117050853321685e-20)
(1.272077730509387 0.129848671200999 -2.267712645737244e-19)
(1.089180475558368 -0.01094344694124973 -8.629645377881804e-20)
(1.070805067834177 0.02645611685842706 -1.074404506058734e-19)
(1.040971010499662 0.04678979174775807 7.368725284466835e-20)
(1.022601951131581 -0.003681186263210514 -3.480080949680671e-20)
(1.060908493319421 0.02365469418362192 5.742570851738123e-21)
(1.137472241292084 0.003984554227238798 1.03438407134722e-20)
(1.03915034388342 -0.01444480668052075 -4.787224485358689e-22)
(1.087372030236495 0.03472437412602696 0)
(1.028251134484487 0.01372983830211692 0)
(0.7781988337583702 -0.07761823832521016 -1.815016600872592e-19)
(1.030277273960918 -0.00177428845349408 -6.587214305780091e-20)
(1.131224920247788 -0.00202041577040434 -1.244989321701199e-20)
(0.7034438238098881 0.006560546640511517 7.14456094342272e-20)
(1.175111988483245 0.01925480513327246 -1.966429179184546e-19)
(1.137215251152178 0.005404082663508338 5.111550547083156e-21)
(1.129004879794587 -0.01004246377009328 3.379645437987258e-20)
(1.000933661664791 -0.002958012721630042 -6.831853786963906e-20)
(1.102340705321161 -0.05894844447663782 0)
(0.9896938572970453 0.005193008432007332 0)
(1.057821619414545 0.007026609375898532 0)
(1.005830545265411 0.1888223507857937 -2.378707056378795e-19)
(0.7792223969863344 0.01243497379383978 0)
(0.8570158077017157 0.1019817319520703 -8.242296001033418e-20)
(0.09067141456307551 0.03319410642289186 -2.970319265272832e-19)
(1.171764097217475 -0.03131135447256546 -2.286029028382363e-20)
(0.6712720126462144 -0.007329021260140627 2.452744936411139e-20)
(1.165069670041088 -0.1005636010281062 6.91484404257671e-20)
(1.125639249067646 -0.0003587236990815393 -5.779033073773473e-21)
(1.153709661549876 -0.04925015717012388 2.221444780901892e-20)
(0.08497498778613286 -0.2092329629822943 0)
(0.2388791763856087 0.06585462288297565 0)
(1.261778837940909 0.105974888201736 1.867313263627708e-19)
(1.021123657547136 0.019823577797771 0)
(0.7377507783617099 -0.006249194654341665 0)
(1.07505839265401 -0.01143353831568297 2.743641417690182e-20)
(0.9748231130918162 0.002870522102028474 0)
(1.297582804207368 0.1208415727125254 -1.497211628246793e-19)
(1.057365558506775 0.01096573240462039 0)
(0.9931023673003117 -0.007041469659575521 0)
(1.065130267190634 0.008300018783406738 0)
(1.006231387890491 0.02089548442234657 2.14848775245887e-20)
(0.9358990014295963 0.01167190028319309 1.256594930657907e-20)
(1.176360215758747 -0.1997264051380774 0)
(1.005106431115728 -0.005191381991736915 8.043442239690218e-20)
(1.059177323140483 0.006342467444938195 0)
(0.7746065564779018 -0.003295667139570757 0)
(1.218167646253025 0.02664579094988992 1.625670430222511e-20)
(0.7049994447889053 0.001368727905868838 0)
(1.433824032490992 0.08426018679182799 -5.126166790488796e-20)
(0.9950410099027984 -0.005407544222517906 1.683350323568514e-20)
(1.273794253394963 -0.003537434738558604 -2.998579050843273e-19)
(1.059647365649204 0.009038808627034923 1.334114387803019e-19)
(1.000909585416186 -0.01353510428352557 0)
(1.209629300265807 -0.1432279192166652 2.053238837021751e-19)
(0.7331774252991805 0.0137848821205001 0)
(1.098388322625136 -0.004920145182649203 0)
(1.156077600890558 0.06761449408579058 1.90093685226267e-20)
(1.006504307356108 -0.006426735386465934 -3.048907594537241e-20)
(1.122709673742157 0.05215107928576004 -1.72501291463527e-19)
(0.122347242348262 -0.0937170994068456 0)
(1.073212630031626 0.03910649802060009 0)
(0.6617237110265641 -0.002880435154067141 -5.079071544001085e-22)
(1.012119459150316 -0.01953311596514956 9.115755606642985e-20)
(1.061405494284709 0.0008734423402831459 0)
(1.078038085976972 -0.1366827056002966 3.759719770184934e-19)
(1.002726355835457 -0.006139965314018055 -3.30190861311991e-21)
(1.003265081323301 -0.004283409718767562 9.501719185369044e-22)
(1.093986720961756 -0.009219529829308133 0)
(1.020739408712954 0.02036571996401996 -6.616499235030515e-20)
(1.106623312158483 -0.001583179625438877 6.374655180597354e-22)
(1.07455831842517 -0.01088783483807475 6.659344703626363e-20)
(1.085655688401652 0.0221738778824921 0)
(1.326907839374023 0.1561981019657327 0)
(1.002066660153373 0.00047728479525653 4.407922713636763e-20)
(1.31888717477004 -0.1320208120236203 1.599867145804271e-19)
(0.01268702395313133 -0.1650347343806131 -2.327384974609003e-19)
(1.071116358597964 -0.005354241033756606 0)
(1.111476076115865 -0.005387427794083459 1.163706620417397e-20)
(0.7267384514058878 0.01779456003225854 0)
(1.058523315034111 0.01128789451305394 0)
(0.8623259423620693 0.1616978517090612 4.602375368668566e-19)
(1.283830042585131 0.1263517713751486 1.909538884142012e-19)
(0.6542494774343136 -0.003100806256511798 -6.527701370647089e-20)
(1.039606306238532 0.005504790758970388 -4.626883036290306e-21)
(1.054786520199704 -0.0002108868177843303 6.458020100645092e-20)
(1.363043722304296 0.1172160361387444 6.580170039966601e-19)
(1.336075477038894 0.2518827323062908 0)
(1.0584535560059 0.008696378715693913 0)
(0.9996644006307716 -0.004271349727061071 1.393243685129996e-20)
(0.9930098047891021 -0.002461585164854205 3.257938275380579e-21)
(1.383977181149623 0.1992626190024032 4.316203152593676e-19)
(0.6818611223885306 0.000482438860705922 9.970152907180118e-20)
(1.005686959919095 -0.002203971310518814 -6.024234819211437e-20)
(1.098192509951385 0.01314363155761719 2.562173848424515e-20)
(0.6694532171278189 0.004951922413277237 0)
(1.066086549154834 -0.01202337994953831 0)
(1.014680615200569 0.1427486756828771 -1.426549634962339e-19)
(1.089890676283156 -0.0003727101371071602 -2.580496645072559e-20)
(0.9819492968396387 9.757207591398454e-05 3.309871735422242e-20)
(0.9912117996524187 0.006006176343612889 0)
(0.6381344904117756 -0.001086121410830265 0)
(0.9767033455113872 -0.001238451580193141 0)
(0.6420570762737371 -0.001420920183248342 2.635477689241515e-21)
(1.088153106254299 -0.05531808493935522 1.211987533329246e-19)
(1.110293769330877 -0.005481806179680694 1.141761920227268e-21)
(0.9579592814518028 -0.0008543737232030586 3.879137875085039e-20)
(1.017201675493633 0.01025586756900109 1.742125345799253e-20)
(1.066133944915231 0.00619517827914642 -2.468172127624136e-21)
(0.6347660578190262 0.008872222569366872 -3.614751867270909e-20)
(1.005970947209903 0.01000693952381081 -6.584984424811224e-22)
(1.037784235461615 0.007358867591451684 5.385835913272374e-21)
(0.9856005742807273 -0.005944525982942547 0)
(0.6099694114760011 -0.0004454538245372455 0)
(1.06897578870359 0.02249055054789924 0)
(1.016356138881244 -0.01688664811501703 1.030935063389543e-20)
(1.023298604220011 -0.007702916764067006 0)
(0.992948731217452 0.01347637692325369 -9.8793057605162e-21)
(1.009057681511569 0.002883847971419948 0)
(1.134352018174911 0.003242677263031082 -1.196674190272127e-20)
(0.03222552232248063 -0.1420586243600983 -3.840262427441235e-20)
(1.034392285036826 -0.01829307470037105 -5.863151856652759e-22)
(1.042410825051331 0.006734257755608413 0)
(1.083430685066787 0.07048342178065116 8.440463663117339e-20)
(0.9671829749191484 -0.001558283191898955 3.108874871011192e-20)
(1.020079221254518 0.01672222027173239 -2.247780745671016e-20)
(1.004988880996137 -0.002804195037747743 2.408143006519642e-20)
(1.038876729877729 -0.008028959641131525 0)
(0.640915298733308 -0.004084316777856751 0)
(1.025935100743594 0.02451336474456605 -7.882976855114818e-20)
(1.087912551630695 -0.002732717868260647 5.08317867563301e-20)
(1.013227176918599 0.007770010491165837 0)
(0.9803420635293882 -0.0005402289906219078 -1.942407194807693e-21)
(0.8550342360476393 0.008511379722735714 -1.031494917172616e-20)
(1.013984661111471 0.002668960152539114 -9.523452763431794e-21)
(1.02217960565876 0.00326063078444855 1.876887782183196e-20)
(0.9832949113896028 0.002145540364793376 0)
(1.007181961103655 0.01141760628217458 3.237064984153687e-20)
(1.11105783680618 -0.0004725063621790789 0)
(0.9333565053488343 0.0116838756240373 -3.141103732128415e-20)
(0.9535336345017702 -0.001015638484632188 0)
(0.9023445448987495 0.2025777596945008 4.958924618730756e-20)
(1.011088328724906 0.06733917046675887 0)
(0.9910790363402541 0.004959419098704522 -2.278372192695415e-20)
(1.058571056356551 -0.049641742528519 -2.81809246350881e-20)
(0.9939125516875854 0.0004172729752691746 3.246505062005046e-20)
(1.007136185721782 0.00661460137919764 0)
(0.9799644825381092 0.0007951179025728642 -3.007483975584487e-20)
(1.177660296005646 0.1025642610508023 -3.401980516080394e-19)
(1.068783262866424 -0.2644501111940458 0)
(0.9940930346289985 0.0003833258403409049 -2.270925463317536e-20)
(0.9733641022214226 0.002255095724394951 4.787403754342824e-21)
(0.9607308231264695 -0.000703543480809083 1.01137264790982e-21)
(0.7459792172457108 -0.001056053962005056 0)
(1.121317268371746 -0.07057900910162332 0)
(1.003259093875439 0.0003125048150995905 -2.263526858885862e-20)
(0.9094171497371134 0.01035477722496744 -1.057508945605222e-20)
(0.8414885831008756 -0.001353286339742662 3.233812727765877e-21)
(1.012928786242415 -0.00808911570968914 0)
(0.9618185308951713 0.01423000181447548 1.465838442534602e-20)
(1.005598239216323 -0.000202900285707209 -2.246122022130543e-20)
(1.026044554386511 -0.002791410201944379 -2.489647675181754e-20)
(1.114570080660803 -0.003110393523823553 -4.914973673004214e-21)
(1.117167491851488 -0.004027427506157345 0)
(1.010315140107978 -0.001697716997999671 0)
(1.021969858115481 -0.002624520223533913 0)
(0.9437629534466569 0.004843444414675367 -1.970844210063038e-20)
(1.01785909081004 0.01343354392441821 5.599826872289217e-20)
(1.088186282098552 -0.005079491357204951 -2.353575504148924e-20)
(1.03920224295144 -0.005359117618508647 0)
(1.108929237696128 -0.002330106502601844 1.840926625509218e-21)
(0.9941498261001358 0.00127173875288977 -2.245532526410275e-20)
(0.9809695520126618 -0.0004674171098207894 0)
(1.009966347078677 0.00265219312527349 4.687511489893255e-20)
(1.363998574564047 -0.3141746183476285 -1.121460555438105e-18)
(1.120866411738614 -0.04408183769487552 -1.107689394532826e-19)
(0.9703080370396513 0.00985194674055122 4.430511708658882e-20)
(0.7655556679568659 0.005925195065651377 -3.506682422713476e-20)
(1.224032746652364 0.050194335869088 0)
(1.217541129433859 -0.1275484383851268 -1.480338619883886e-19)
(1.084872371254485 -0.004790977839142249 0)
(1.008497035480798 0.00044081629428078 2.295655583535801e-20)
(-0.1999786271894486 -0.1181822296669337 0)
(0.993968474758027 -0.004666418770492013 0)
(1.012343946371783 -0.02304624851679088 3.985702587234584e-20)
(0.7064244345702644 -0.01943848118996645 0)
(1.096789122079153 -0.01486889727490146 2.302379039281616e-21)
(1.039553801421648 0.001238069047209381 1.588173578043192e-20)
(0.6332306053302732 0.00413169338603179 0)
(1.447023883950042 -0.1241048103288327 0)
(0.9857995922345844 0.001882516476660196 -1.067303056537976e-20)
(1.069696528845923 -0.01509158945595286 0)
(1.037794442427884 0.0004951191136526632 2.048675369717305e-20)
(1.083204423852886 0.0001987523981442011 0)
(1.012288707289155 -0.004943059931330496 -1.17949861320032e-21)
(1.005933123439052 0.003282921492764842 0)
(1.007795545603036 0.003384264617934163 -1.249757128724857e-21)
(1.004444938367389 -0.02041811048717904 0)
(1.03639730297581 -0.007721358829951505 1.77228454041544e-20)
(-0.1880309029765889 0.03767877868308241 2.794317210827126e-19)
(0.8015148012852864 0.02625996391926644 5.854346036098209e-20)
(1.005134094889371 0.002042806902211235 0)
(1.122777597117063 0.0100283008153785 -1.185139442503579e-20)
(1.111715076082582 0.004158631919423628 9.118661962894248e-21)
(1.054335207155324 -0.01274659426624729 -1.324354047390831e-19)
(0.998773093154251 0.01039612070423165 -1.644691104996267e-22)
(1.08291667084944 -0.005038934244806491 0)
(1.188995385369928 0.05125506604863643 0)
(0.8351191948645227 -0.07516041516964894 4.604761633203286e-19)
(1.089130242747374 -0.002036787384526315 0)
(1.033914512838897 0.007760826581892903 -7.681694534175194e-21)
(1.042504555215155 0.005332115485910547 5.672200657891154e-21)
(1.054169681131097 -0.05847648219816012 -7.601189956440061e-21)
(1.13930242931892 -0.0017894976929916 1.717621031468762e-19)
(1.082820362987939 0.001272797989775826 0)
(0.9942204934370602 0.001901157487841509 0)
(0.9978356869084803 -0.02661321261710691 -2.440049986958326e-21)
(0.9904308532944747 0.003619887327136894 0)
(1.030935430160871 -0.0367745321069453 6.507185783381553e-20)
(1.290996316244345 -0.09737139284387139 0)
(1.040427990879777 0.002419885069454926 -4.484111802600693e-21)
(0.9861858996855229 0.01692554217329467 -9.022215877688137e-20)
(1.033267249581422 0.04302070937385325 -2.329523516979367e-21)
(-0.07413347900689228 0.1823373149897273 -1.735734542446868e-19)
(-0.07059659884999193 -0.2893414482694717 -1.29542203934428e-19)
(0.8857722263594822 0.1218148221439246 0)
(0.2784824764282462 -0.03123491210849633 -3.071774993808573e-19)
(1.007004964064619 -0.003039969184189365 -9.861887771035222e-21)
(1.063926065383308 0.002723417200092169 -2.066934052382288e-20)
(0.9918530931224629 -0.02152655283700037 3.108420916447054e-20)
(1.02626939150574 -0.03086819793684911 2.694172910142426e-21)
(1.010055184645774 -0.03078314872933229 -6.698451860207769e-20)
(0.9888502576256744 0.004868326644915103 -3.490221378674036e-20)
(0.9935430517560887 0.005110529078947805 0)
(1.024569344285222 -0.002271798291967874 -3.469026584099115e-21)
(1.932508309549658 -0.1564915929928841 1.067406908758136e-18)
(1.046027672055429 -0.007654678752808603 0)
(0.9965433754544905 0.008123455147694974 1.494858477991994e-20)
(1.003649727976744 -0.0005331007998370032 3.992983347558136e-20)
(1.167006692571836 0.1594709957832461 0)
(1.004738190884907 -0.01685135755184772 6.23177183753524e-21)
(0.9527977835231326 0.003707807731853253 0)
(1.037842702641754 0.04173295624099285 0)
(1.30343710826784 0.150968095469981 2.246544723624343e-19)
(1.077287073713055 0.0002677869726908298 2.335460036798426e-20)
(1.016051040443533 0.03030679918417856 4.466732144866089e-20)
(1.080088029515695 0.004047603203611758 -2.248724912640983e-20)
(1.056043403096254 -0.02175327974773883 -6.691458199336689e-21)
(-0.3891305981575669 -0.04708595644227673 0)
(0.999708121367144 0.01270029318256709 0)
(0.1221105642728019 0.05334002981840359 -9.464266086881673e-20)
(1.006185648640182 0.02022008015392097 -4.003952630329353e-20)
(1.006647133250564 -0.02720970221226778 0)
(1.001231594131117 0.005307691998513926 -4.871580305862304e-21)
(1.082047998693549 -0.04241844388534012 0)
(0.9939135820229882 -0.01848833820774633 -8.138368920105675e-21)
(1.101246966957143 -0.05276841289614435 0)
(1.44365449704864 0.1699817969207053 0)
(1.054887209294486 -0.01200037273290801 0)
(0.9913365626259162 -0.02499374211085292 -4.177325497250468e-20)
(0.9953125003285284 -0.02770418587003195 -3.525696300727967e-21)
(1.015894719683066 -0.02177837777381624 -2.152849157125975e-20)
(0.9965884837885218 0.01684271017746335 -5.41541066241638e-20)
(0.996138052786511 0.009717008932389732 -1.456846390446762e-20)
(0.9954337987597687 -0.02795236922352849 0)
(1.001734738590259 0.02393839891097492 1.879967328559258e-20)
(1.047052934297699 -0.02588844810497467 0)
(1.111036131683805 -0.03628439892177279 2.537791185570004e-19)
(0.9953959033628279 0.01654073862559388 4.475211838699542e-20)
(0.6150353216928126 -0.008695444641175684 0)
(1.153366297045227 0.1628576620329899 6.279340883890138e-22)
(0.8295030243312017 -0.07940264662261672 0)
(1.138399979235514 0.07263619404028286 -2.787487949172402e-19)
(1.315163190292387 -0.3889254347586652 1.281089201744283e-19)
(1.070028098511163 0.06654528192188969 -1.245057517968238e-20)
(1.011843122584749 -0.03090918150746158 0)
(0.9554718699177017 -0.2152361884434246 0)
(0.5471940737117934 0.1773547252512002 0)
(1.01577936777113 0.01262358349312257 1.108974893142552e-21)
(0.7066169310309002 -0.01772677480274875 0)
(0.9990348953222363 0.01624619867440778 3.447512521835662e-20)
(1.027072382171878 -0.001629140755781908 -2.689130380895328e-20)
(1.078996353075504 -0.008030443250773824 2.643470603016464e-21)
(1.054770087534658 -0.02723271418753863 2.56893107031592e-20)
(1.042831907150296 0.01158770797223814 0)
(1.058140162257463 0.02036150123247249 -8.683386245729047e-21)
(1.050429674884113 0.03634412713630124 -1.772159992295575e-20)
(0.9838674465845313 -0.02244274404632631 0)
(0.624881602857268 0.005108229703490681 9.169541008303312e-20)
(0.8941576184016794 -0.005947684054570704 -8.845050162436841e-20)
(0.9093650420452754 0.005229250146562488 1.451686164051346e-20)
(0.6296430349479279 -0.006442729844673424 1.410499797040894e-20)
(0.9810179508717843 0.0001207737219483367 2.463628479513717e-20)
(1.004410154209406 -0.01752198065728516 -3.339001711426477e-20)
(0.9829818162231245 -0.0316496137273247 -2.771617207755729e-20)
(1.085638839872318 0.001604352213154187 0)
(1.019395747316462 0.005331241393754607 1.04072254344723e-20)
(1.132637016295463 0.0483601005419263 1.344852243593421e-19)
(1.031234109129209 0.0422363912688296 0)
(1.02261693359847 0.002596654977412301 0)
(1.582916254044718 -0.1682029940187308 4.365905913563788e-19)
(1.056632968841211 -0.0398119110942522 0)
(1.020377425119382 0.01069582591930864 -3.630313761247479e-20)
(1.082454857645793 0.005404541210191308 0)
(0.4926025757879088 0.002702172187794597 0)
(0.001012901747385882 0.01155051011910126 0)
(0.9912311185591305 -0.02366212378325701 1.251219931068406e-20)
(1.301076397352155 -0.09672630791172732 3.676496824418343e-19)
(1.030982357010012 0.03612059814272381 0)
(1.022493695583881 0.00357767320378624 -2.183005349796107e-20)
(0.932719638170166 -0.1607870357384337 -5.861191884638042e-21)
(1.25661799750445 0.07447811384196024 0)
(0.5977854205914902 0.7298641251089322 0)
(1.308242638361501 0.1412439620783184 1.041601520654056e-19)
(1.675665808128221 -0.02656077535202488 0)
(1.061012651573677 0.1314591523010305 0)
(0.7237368268335933 -0.006863818408527917 4.136375269340576e-21)
(1.046221124859322 0.04634173272657701 0)
(0.7532471452198104 0.1177252286368581 1.388890779005744e-19)
(0.9968072158685675 -0.01632870711039456 3.583040467693471e-19)
(1.03907980587993 -0.03971001791029873 2.724376682510178e-20)
(-0.3759323352419315 -0.0517251859853479 0)
(1.072230303836664 -0.01622788381718053 0)
(1.084458233588351 -0.009900037209269094 0)
(0.6483856383818457 -0.5034997715044612 -2.486620805088666e-19)
(0.9899587840015702 -0.0002866466746851151 0)
(1.092309669610107 -0.02187008390862877 6.58372833561691e-22)
(1.188035782908278 0.1207382088761038 -2.040771075301685e-19)
(1.099544728218265 -0.04523473403595204 0)
(1.005911108035092 -0.02077919129707387 0)
(0.7738876812417496 -0.1885299920594985 -1.630686049086855e-19)
(0.8848114948091685 -0.1398624585987335 1.457562960924845e-19)
(1.03392976375179 0.01323677960001288 -2.06326297583503e-20)
(1.023129957743224 -0.009044292914746054 -4.319923901643312e-20)
(0.8742154755446164 0.002774853373761769 1.911942233103587e-22)
(1.504394405137962 -0.1948277941113082 0)
(1.308252266058512 0.1107584018708976 2.981790528401221e-20)
(1.240993163698226 -0.07708232906593347 -3.283742109947552e-21)
(1.095788381501625 -0.01871351439183648 -4.012699435525379e-20)
(1.036360222758298 -0.01757281750745717 3.058433213270976e-20)
(1.092818629276239 -0.03911232773668365 9.514899118955825e-20)
(1.032207914386651 0.02059497256573784 0)
(1.051228879880234 -0.03541566609979675 0)
(1.115907947538984 -0.008982547339592287 0)
(1.100327832900201 -0.03995613279105793 0)
(0.9982882436190076 0.01085921508060016 0)
(1.153285898818338 0.08065093503779602 9.432364629855474e-20)
(1.341134953719608 -0.1590167161198039 0)
(1.039729304202997 -0.02735904975334688 -2.598777173726347e-22)
(1.048047560042092 0.05396566631058854 0)
(1.010142789384652 0.0141787352001251 -3.809738084152848e-20)
(1.033621664057095 -0.007576384662067183 9.349559666840703e-21)
(1.088958491102995 0.01341325333580906 -3.179216550954269e-20)
(1.084496623051944 -0.02844393178204624 0)
(1.072018595736883 0.001528755346503175 0)
(1.101993144925684 0.09263203367664874 -1.399703139824485e-18)
(0.9351985340571728 -0.1492775715054007 -7.100575854882672e-20)
(1.176970864577204 0.1167903509399443 1.147318850912256e-19)
(-0.4578196093531721 -0.02944601208173364 -2.913439167047008e-19)
(1.018116102410533 0.02956463998787453 -8.587241701512156e-20)
(1.006930182125854 0.001323663853034093 0)
(-0.2428574093628901 -0.005068983340485599 3.575823596269918e-19)
(-0.03261442087751691 0.3092653250872839 7.541149592539865e-21)
(0.9952076517146364 -0.006284500118400323 9.051986319252472e-20)
(0.1830457086463997 -0.04499837702814716 1.28303692103323e-19)
(1.086678618632516 0.09057779316699918 1.417084741141534e-20)
(0.09347422123079141 -0.1096424520236752 -5.418874679724653e-20)
(1.108369694535385 0.003072986213164104 0)
(1.095341696443932 0.2496255993365695 0)
(1.021051529043387 0.02158711650160711 -1.681422979319196e-20)
(1.062040132501116 0.05574829046999214 0)
(1.025078056701687 0.02356875270984866 -8.28713326498449e-21)
(1.262165226127345 -0.5485936206206039 8.00330537559202e-19)
(-0.1040698807684242 -0.241034264030111 2.085440816471031e-19)
(1.300354841307158 0.1114709676416222 -6.142656866461824e-19)
(1.123349726659137 -0.0005775778493934818 0)
(1.126103858953867 0.1077090036032433 0)
(0.520723782994283 0.07620541031572647 2.406418791462376e-19)
(1.023348223695742 -0.02032748934270875 9.57587479493925e-20)
(1.006149966167138 -0.02313836226090897 0)
(1.211789205983332 0.2706644434467916 -9.763120350236756e-20)
(1.256938376106923 0.1260394775133006 -1.501016493444504e-19)
(1.026511195566425 0.003106510177441692 1.587624729094687e-20)
(1.297205410304586 -0.08518042481358237 -4.955936111028759e-19)
(0.3080009701338347 -0.02330986759906439 2.915868234434062e-19)
(0.8336308104311504 -0.1499873923874134 6.912504679175328e-19)
(1.043329881341613 0.05979094373961317 1.101641415640955e-19)
(1.038510169410104 0.002663861506204114 1.499480483823428e-21)
(1.000783041580559 0.01923885291161869 2.853483933558264e-20)