/*--------------------------------*- C++ -*----------------------------------*\
| =========                 |                                                 |
| \\      /  F ield         | OpenFOAM: The Open Source CFD Toolbox           |
|  \\    /   O peration     | Version:  2412                                  |
|   \\  /    A nd           | Website:  www.openfoam.com                      |
|    \\/     M anipulation  |                                                 |
\*---------------------------------------------------------------------------*/
FoamFile
{
    version     2.0;
    format      ascii;
    arch        "LSB;label=32;scalar=64";
    class       surfaceScalarField;
    location    "1520.5";
    object      phi;
}
// * * * * * * * * * * * * * * * * * * * * * * * * * * * * * * * * * * * * * //

dimensions      [0 3 -1 0 0 0 0];

oriented        oriented;

internalField   nonuniform List<scalar> 
1171
(
-0.9279161676710455
0.9279161675554572
0.7872598564365754
-1.098758553038184
0.3114986968235217
-0.1946716657650914
-0.7675020504250848
0.9621737163821417
0.07208383642217989
-0.1175406984835182
-0.2118098237506497
0.3293505217131024
-0.7872598485072585
0.06927696489514672
0.7179828836398789
0.8106843367150793
-0.1774061736811869
-0.6332781630751265
0.8741720703543038
-1.043482916380722
0.1693108461278046
-0.2847000289211458
-0.09805601103291071
0.3827560408005922
-0.03610484202563227
0.5483641760862047
-0.5122593342547543
-0.507194103624432
0.8292154459958749
-0.3220213425776209
-0.4022407317170859
1.045622406468623
-0.1714503270250193
0.3957672111088336
0.04907880899165922
-0.4448460216482678
1.04638957114483
-0.0007671619546318318
0.4465653332440395
-0.05079811278484615
1.056906667419062
-0.01051708863051887
0.5784637455279117
-0.7731354166368065
-0.7242899429514419
0.5570930631574725
0.1671968796662856
0.2193928297357634
-0.7265869312351916
0.5500199423958475
-0.9225522456415555
0.3725323014936766
-1.094193730744109
0.6864559037420664
0.4077378273016852
-0.5953620736050343
0.5592572250228312
0.0177381946289216
-0.256377036698278
0.2386388392585413
-0.02418132153159348
-0.5238520447225878
0.5480333670831847
0.3998407114949091
-0.497896719204765
-0.9187681773143666
0.9415148128110593
-0.02274663550710106
1.067804960800596
-0.01089829025762817
0.9352073812960303
-1.116978737365545
0.1817713559636648
1.06744028931069
0.0003646761912738937
-0.6642717522759499
-0.06001819485834997
1.262037273011732
-0.8644595049986397
-0.3975777679909563
0.1486721143816966
-0.1092069899999558
-0.3254937783450009
0.4347007689862458
-0.285680709725623
0.1914282692675379
0.09425244167937878
-0.5834017433161003
-0.5153568140507206
1.014124973322376
-0.07891759310173439
0.009913250223339401
0.825449556448695
-0.8353628066318938
0.5717670012436924
0.6902702692796203
0.439157178952227
-0.03073957775142751
0.4305802905231275
-0.8077581279449056
-0.1026270147270173
0.9103851425432213
0.5026894454870425
0.2539524555071555
-0.7566419010873052
0.003663204088329209
0.5305138432158987
-0.5341770477719484
-0.4899167516438599
-0.604276973712649
-0.4228975262200721
-0.6940812125900171
-0.0274939165237376
0.270518261811915
-0.243024343587912
-0.9249189643613517
-0.005210414467573737
0.9301293788925447
0.3078104666480231
0.07494557881592252
0.7622254575725286
0.04845888344498298
-0.5329854936163072
-0.0623765802878787
0.04629541091687692
-0.8540535366647426
0.07690375430881476
0.8617892725978682
-0.9386930269282755
-0.3473811815237886
-0.04089431050981263
0.3882754917893197
-0.6824261962491753
-0.2424927687651899
-0.6318628943373047
0.7087666474663443
0.6098345191364636
0.2193809273354802
-0.5429989186762642
0.946198507523733
-0.7793413676575415
-0.166857139865534
0.02009340462601145
-0.01081644424258992
-0.009276962541165204
-0.4030131744075361
-0.09488354651930214
-0.2420248204420166
0.851859342653651
0.04734401590325984
0.3339729722498579
-0.381316987301931
-0.4609353030485376
0.9636247474122166
0.6801390746196558
-0.7827660870786953
0.3180198394164073
-0.01537905407367706
-0.3026407871512776
0.9306634747033115
-0.930663474677741
-0.7829566423626406
0.1113114988510662
-0.3231213263025406
-0.7500347883169604
0.7599480376384533
-0.0910168085488639
-0.1426745736924932
0.2336913832115139
0.8649186068115632
-0.03946904981303477
1.054525308482304
-0.800572852391621
0.1862380808513636
-0.3158620798789444
0.1296239989660288
0.8589959550085519
-0.09677049229777079
-0.611637916465673
-0.03945256850046949
0.6510904849987783
0.1237567719874213
-0.2308447398925862
0.1070879653699958
0.8055947695968396
-0.9830009353353166
-0.4348320328559261
0.3293506354038425
0.1054813967772368
0.5323942567201349
-0.5565755799653629
1.022124187455664
-0.4562810804868236
-0.5658431070043918
0.5992266613974621
-0.7192817780370026
0.06656123378638037
0.6527205451276996
0.1023540508243419
0.5703704211248715
0.05465434066670179
-0.625024762025469
0.1946527305650908
-0.08334122337746844
-0.4927791945459688
0.1453980161363293
0.05036930970854169
-0.8867523618990257
0.8363830520950887
-0.4747732352788154
-0.7133614099446074
0.04908965744508708
0.4364764443899367
-0.005896159628860908
0.3000165325522389
-0.8552862709899888
0.5552697378772297
0.4157295056811133
0.5842704942497304
0.5606230458031386
-0.5143276331304616
-0.3653638559911527
0.03668158572044201
0.3286822758084957
0.6813219754504938
0.2493414968750187
-0.5672203968265297
0.5708836087144729
0.1109826613435996
0.8748717276362569
0.01030098248970422
-0.6219388931144041
-0.7492673915136149
0.7996366992359939
0.5309178592376903
0.07160873419770152
0.3006194975906563
-0.3722282320610291
-0.1675976270510374
0.443078869071645
0.08743497426143934
0.8747637286706146
-0.7987012199865189
-0.07606250888490275
0.6355378601076478
0.3106606502911792
-0.4305070942490558
0.5753409333571347
-0.5037322066818236
0.4170938345303094
0.1329260967500189
-0.04688834157617439
-0.5886310730126625
-0.1389647253804623
0.7275957984538837
-0.1496654635816911
-0.7809980149729585
-0.6110671110476721
0.3604562185693255
0.2506108947470795
0.6222474863112177
-0.6119465064257017
0.2383337060681527
1.011672139941867
0.04285316650905792
-0.7492673877838243
0.2195598743745956
-0.1994664670750772
0.680139075779537
0.8021335392214753
-0.8021335391556275
0.837662706817029
-0.8332594237934636
-0.004403283190560662
-0.4453593132526251
0.8610888171271345
-0.1476133307100923
-0.3451658639171166
0.7347469485872857
-0.6685164900422882
-0.06623045839018835
-0.7330170721542149
0.1443859942143721
0.1389117028524583
-0.6718971975458303
0.7827660910178057
-0.9503637179397938
-0.3649105800233217
0.2868220549515368
0.07808852568316298
0.1458167340241885
-1.009661819447871
0.8638450853748775
0.4805683283432765
-0.0414111492342154
-0.308137268019379
0.586342533783942
-0.2782052659953379
-0.7383644247063145
0.8841811615514712
-0.1570938802715356
0.7344849230775108
-0.8365326134660379
0.1020476900231039
0.9782544979219254
-0.5412715533525669
-0.4369829445075669
0.7552452031367597
-0.0648458327092753
-0.03599228427863606
0.1873797140215084
-0.1513874284379295
-0.7757379922139273
-0.8433739496179885
0.07587189571958523
-0.7500347872190456
0.5141335871218231
-0.5550278914731899
0.09191261932223284
0.717483433926519
-0.8093960535085217
0.7536706743993897
0.1742454938088399
0.502889216496618
0.4971107835506314
-0.05404513223341274
-0.6060952229906588
0.6601403548748734
0.8786856274492728
-0.003921894996315769
-0.7552452031633921
0.7996367019349538
0.1912810388142508
-0.4476580699308708
0.0173802818384092
0.001405189381727587
-0.01878547925201578
0.5894962558917772
-0.4381172036844428
-0.1513790529074351
0.7179828783632594
0.01385632364243199
-0.1088890370572059
0.4381433013303303
0.1513529555883695
-0.01358588139600986
-0.007088473968638848
0.02067435670583676
-0.03364966637876235
-0.002342616966065024
0.2442012210166438
-0.2595802847440049
-0.9592274155171758
0.002010322567003209
-0.1595907135575388
-0.1207093652933545
0.09476657139002879
0.7215999266132302
0.7289842206876043
-0.1447137243845757
0.6624571475905746
-0.5705445320556987
-0.211934752671033
0.3981728298274698
0.6955112585340583
0.02247161986530243
0.2416642080527428
-1.074923632799009
-0.9503637165273888
0.3019143010440477
0.7599480387356368
-0.2089416831713849
0.06626710622857528
-0.7236102506357353
0.9094373923932578
-0.185827141869491
0.4163096150272846
-0.0280341187945873
0.7715372193568463
0.2807182359462216
0.3737867884035405
0.07277853528233842
-0.6587022908426495
0.6587022908902123
0.2148224713736585
0.6955626733218699
-0.05527634675227783
0.3892493132823598
0.3794244195067603
-0.0125940521166828
0.0299743596154608
0.449077863374423
0.03149046703065619
-0.7383644225617481
0.5340737857524385
0.2006731636418433
0.3039561936930648
-0.1165765030632362
-0.6955112561510708
0.179637816995836
0.7297995751306212
-0.01027745465172944
-0.8136143104732133
0.8238917651869861
0.6963324684710376
-0.7920190136083095
0.09568654509875554
-0.7536706733946457
-0.1508518251092478
0.2118385821944387
-0.06098675508005249
0.07744775371105393
-0.178925338695432
-0.1133063580808534
0.2922316956280519
-0.005446634435341708
-0.008139257751485955
0.7066156771448416
-0.7168931369446258
0.885518999826885
0.0766547096911263
-0.3171952682972479
-0.5174759784105392
0.8346712472285852
0.1039091420384497
-0.1039091460663292
0.3235036169931165
0.472910174275801
0.6177548467698333
-1.090665021355373
-0.1941049323184806
-0.5856586883068036
0.7797636206045834
0.01367854141569347
0.2200128298343073
0.376814985606334
-0.2530581988977636
1.014128848889156
-0.5412186760870593
0.6660322017823156
0.9945285997675679
-0.3767737525052876
0.2292016543244554
0.8841811608770507
0.7127308382524469
0.2137830645480234
0.7277317495898556
-0.7809980161078669
0.3412977053461861
-0.2769369786550574
0.2473760953529733
0.02956088313018363
0.8463672471011149
-0.005892414367631089
-0.8404748331265662
-0.7022137548859499
0.7025784318293621
0.5546406866457815
-0.7022137530272287
-0.7127308382587959
0.7025784359133916
-0.03482614258275996
0.9076714975603203
-0.02215249854032082
-0.6813219675749784
0.6123446646065873
0.06897730296738269
0.5386457683017151
0.5369265663600882
-1.075572334656269
0.4902419466188763
0.5238869018306439
0.5434771362646472
0.4587420824405593
-1.002219218839141
0.4957577733383265
0.4987708252692523
0.6123446589995212
-0.525538583107735
-0.4653086317313576
-0.5567256431746082
-0.5176349260773071
-0.1190491849108617
-0.01228974223644963
0.0122897440446783
0.5129458632565244
0.523301387987389
-1.040936314342096
0.5741836576732579
-0.2735641662821353
-0.8852163430674249
0.3439447871212271
-0.6331085730675285
0.3906158047785765
0.00255598838172185
-0.8280659327106344
0.825509944336612
0.4208469475295067
-0.01864741483175714
0.8650146573535539
-0.9490581625170372
-0.8334314992478085
0.05383989670992254
0.7795916026315652
0.5667845320656562
-0.4397073158586181
-0.1270772160167882
0.6501358419663398
-0.7290534359974205
0.8873015448698611
-0.8313828937699449
-0.05591865070907864
-0.01061355214017259
-0.7880876662144572
-0.1099047220359819
0.7126193852247491
-0.6027146632139698
-0.9367029417228983
0.9260893920650431
-0.7250308902646938
0.6914851238493903
0.03354576640263551
-0.8110429511750585
0.03868475198668465
0.7723581993849677
0.06180052319675746
0.04210863057692221
0.4329426329398836
0.06175660687615482
-0.8517775155901837
0.7900209084252667
-0.6438795286762591
0.5898343887969758
0.8892076378457906
0.07084312420521269
-0.9600507622888859
0.05577613721208901
-0.04796462608021162
0.3766468827842653
-0.3815934212385242
0.06573133467234614
0.8420725792690339
-0.8395165814090384
-0.7343882369083075
-0.8141698827044463
0.02608221735137319
-0.1630163508238814
-0.8527532437671815
0.02137035472343968
0.6229832134482629
0.03947393620930806
0.03436651930321039
0.5324180110789786
-0.8078130421212825
0.8464977955854148
0.5658431066718527
-0.8467133356311556
-0.8658598184797028
0.04181167815400168
-0.03296876904351496
0.8375837795199494
-0.8046150103818644
-0.02724328575382375
-0.7673570074777327
0.5443368775253026
0.1519955849514288
-0.02977074003410852
0.8947854024579031
0.9799292875450879
0.8626757936940455
-0.8413054333007739
0.1477142527069418
-0.1477142567728199
-0.1184322742171304
-0.4797740823106141
0.04006676494179091
0.2703343221945018
0.03157997954772551
0.3876431173420692
0.8675421175322066
0.006386093729357268
-0.01183271858056878
0.6585987454185784
0.341401254629532
0.7836074585582183
-0.5834017424999837
-0.7781012373285398
-0.8105074258810374
-0.6798318000333468
0.6798318000292247
-0.1678636636055091
-0.1552576689753168
0.6021026345450011
-0.8121639337140171
0.210061299210743
-0.4938348172313749
-0.5689928876690192
0.2781322627342918
-0.9722134751517271
-0.9015773466462524
0.8456587015926202
-0.8124625748679883
0.8385447942407083
0.6487309395355519
0.1341994712988409
-0.7829304108590458
-0.7769616664714398
-0.1460877420738919
0.7242666378296223
-0.5781788957534071
0.03403522526224399
-0.01384637864738887
0.01779954834863175
-0.003953167062261743
-0.3546904324409408
-0.1250836455461391
0.8802348901732406
0.7470267487066808
-0.2468148033370954
-0.5002119458605775
0.619949544621098
0.6854253055241242
-0.4706028335447014
-0.0003502572590117527
-0.285330452092739
0.02242030954527274
0.7486895983089126
-0.7711099076609739
-0.3234825420306371
-0.07299591763937395
0.07601638525535313
-0.9615621077661847
0.1210872731622206
-0.6779644701578738
0.05197361626417322
0.640627765826461
-0.6926013819810162
-0.756357429373065
0.0783929591807854
0.5879501526272429
-0.6609460701152814
0.1573021012309537
-0.3362274341062516
-0.7704532470569759
-0.006508419461330031
0.371172068805245
0.6009888471025416
-0.02564791061393241
0.0211752105716224
-0.021175212645396
-0.01937819078547316
-0.04903235830109973
-0.2279046320960791
0.02663449618468487
-0.02024839269341056
-0.7309793170949447
0.2792599186638329
0.680602578131703
-0.6890866634738131
0.008484085800656372
-0.5951115712810685
0.6470851957289711
0.6532699299265701
-0.06531977836568104
-0.6312368132654826
-0.1251206163207005
-1.050560461651142
0.01104299538040831
0.1366712589374066
-0.708559007007123
-0.7411415351597239
-0.763208250267329
0.3656304801237716
-0.4110751217842422
0.463167284180242
-0.0520921626268655
-0.6668649131895267
-0.04169409360302859
0.5019118721550941
0.7306825860770911
-0.2343482221751388
0.1136388604110912
0.9680705285495096
0.4463900386707859
0.1339455967286964
-0.5803356355050729
-0.677563411973773
0.01069850158303012
-0.04473946090250133
0.03089308111791332
0.6363388148202216
-0.7753035438005734
-0.001784690366381154
0.001784688925139969
-0.6012207361166743
0.6483775276633976
-0.04715679148043617
-0.6431968913619713
-0.1130724114508552
-0.6715022446014022
0.05703064951021452
0.6031097064711382
-0.1371732941974681
-0.8175899812479013
-0.5637937249735974
0.5656767318514773
-0.001883004776450861
0.6312525998529149
-0.6227685054318682
0.3224479259298894
0.2141130743958903
-0.5365610003510054
-0.1048027249153341
-0.6016128894903376
-0.09098848486057283
-0.1548307052243753
-0.5067630830744486
0.4040872159544738
-0.4989707573478892
0.1269260231590682
0.6782963245072887
-0.8052223476727186
0.5992266613840868
-0.367439884586973
-0.0436352429950748
0.08314346465975611
-0.5899065508405128
0.5517246006640256
-0.04060153921027067
-0.5111230619162201
-0.3126809455776945
0.3052152856375836
0.007465662679608211
0.4546776523085381
0.1195060060336063
0.0516570466688587
-0.3161751443606343
0.1571050930185317
0.1590700518531931
0.2277376989129589
-0.008177822351270479
-0.2934525716601451
-0.310881172512639
0.356573413757641
-0.04569223463394886
0.787119472930604
-0.6260875309580008
-0.01710936072884187
0.4992390279672749
0.2810457014182753
-0.5278605045825029
0.5775072054778767
-0.5775072054773901
-0.289736324437855
-0.5864419852612464
-0.2955829808676194
-0.5864419856377913
-0.5944202832504
-0.8385120386603144
0.1699955474231312
-0.5860207590117058
0.821108493633689
-0.00330330129240578
0.1182713101483449
0.4827175389627081
0.09673733358341213
0.1857789774401383
-0.03645143654616212
-0.1493275390182503
-0.0203440348150513
0.593570200840534
-0.9459825701421022
0.4285065917861519
-0.004274366562871229
0.003533951922196386
0.0007404143548945005
-0.6434986657014503
-0.1317224692325637
-0.4680204326269015
0.6019660277400047
-0.503670496095825
-0.327139003895574
-0.2627675504282739
-0.2710608012403044
-0.1118116211589158
0.1118116228539872
0.1525285538559366
0.05931004511199564
0.1968219831015345
0.4549894500780883
-0.5729489550624236
0.1049285175748614
0.2431017055268444
0.4663806512427022
0.5336193502269428
0.6414914372450146
0.08790529247313349
-0.006323373697173066
-0.08158191908113317
-0.2769431963190294
-0.5406467849445677
-0.5517170714916186
0.1143975049945819
-0.1263172795472351
0.01191977563431905
-0.10562474243407
-0.3857674054612428
-0.04637986840295856
0.6494895818483283
-0.4987201407416665
-0.144778524910066
-0.3379554377095993
0.2913621395699378
0.1248811303014314
-0.6122386235457095
-0.2043151011539267
-0.2622313352898758
0.00265105571607041
-0.4222326606039873
0.3234202723500543
0.09881238872134517
-0.09533432612492186
0.291661415356471
-0.8959383891192162
-0.4578278809368357
0.6291455517218612
-0.7730628879238045
0.668260163110279
0.341284689851183
-0.1247051634299783
0.2246419979838367
-0.09993683626624306
0.02431669514643957
-0.586295213952058
0.02913064567917725
0.55716456775395
-0.9006781374095538
0.5473075682093533
-0.6657398424559482
-0.1003238648884738
0.1097155142028471
-0.1097155199772901
-0.3165253951611128
0.3622715160733121
0.0143753696667098
0.03133311434569315
0.05657218787353673
0.5052699479195747
0.6621584267043747
-0.7382209336788068
0.03273827769289823
0.02289819014144299
-0.001722975797133682
-0.007253110270653003
0.007253112244310125
-0.4165865258333299
0.5360925298707493
0.01544253865855911
-0.01544253841197506
-0.7923000090117264
-0.06104773101018612
0.1228482536171724
-0.4570535629438726
0.5619820777003153
0.4519713819551138
-0.4991281803395822
0.1500552586769501
-0.1500552620122683
0.03211594340891438
-0.002141586192815954
-0.04221848003950483
-0.9760073904213122
0.5390244428391001
-0.468678692598403
0.04210862750682792
0.5146450930438856
0.03101347824654443
-0.5456585716822588
-0.6161712998491303
0.1174511615737738
-0.3293852843511486
0.01344657448694485
0.3159387077434597
-0.1551795932019644
-0.07916862516971887
-0.5408894337317711
-0.04540578262288616
0.1366712544166367
-0.04015790586441353
0.03837321465613924
0.08078754238274052
-0.0807875362903943
-0.5340284105924578
0.4883361658828456
-0.4146065526125738
0.1613314010455932
0.622276057603827
-0.09761810586057239
-0.003375629561521769
0.003375630559003505
0.5329418954448621
-0.07982061076254819
0.005806376657473851
0.02695574318001111
0.03485553582397191
0.6845149329260376
-0.7643355438597792
-0.6534622512128254
0.6363528907411192
-0.1064071770510727
0.3132792811330803
0.7460464046014441
-0.01937818699463431
-0.2668817408551207
0.1503052387019992
-0.744637017269431
0.4842333483899922
-0.4257838899627846
-0.1015262114538716
0.003447448841106204
-0.01428895395207546
0.02031111385051142
0.4109148894283142
-0.1215803994766486
-0.3895426638813709
0.6287911108623307
0.01954283424222777
0.01056352929830061
-0.01056352952230125
-0.3530645011986679
-0.07903896250429909
-0.5604486734669861
0.557145371863915
-0.2380115129989248
0.4647621313843628
-0.1511814513286202
0.7296451930879896
0.671963162210597
-0.04015789864283782
-0.6165727794088339
0.5630741256781665
0.2886612363374483
-0.2854873667390653
-0.003173867988820034
0.541018568579994
0.09338981554054473
-0.03904105465871277
0.19635472770325
-0.1573136721114169
0.1198285997513835
-0.1198285938457357
-0.8587292129654785
0.002340990609635378
-0.1134807556923852
0.1404364962416145
-0.1317979332952982
0.1317979357173523
0.02289818231148826
-0.022753813763227
0.6702057195309162
0.05959385817225559
-0.322886900171736
-0.06288050492262232
-0.4712240353189674
-0.04929419830390153
-0.1514881795437645
0.1514881829972921
-0.04946597165002382
0.1434462469122325
-0.1434462498863928
0.1363413546385121
-0.1363413500340823
-0.3158318863943806
-0.1146752077604469
0.2263263658859098
0.1030242774608116
0.0348374527367886
-0.8211215642130706
-0.1982210348917752
0.1701450627541077
0.0211359795143747
-0.2649305543439027
0.1259447442084153
-0.1259447468246305
-0.4141491858310872
-0.0848215730682
0.2361888683772004
0.002449982611816462
0.04062964304730407
-0.5434949026720511
0.5783210452271579
-0.03192875218878014
-0.01753721790618917
-0.02785522621148366
0.02571364194380484
0.006608999282903366
-0.184527012142423
0.1779180127575901
-0.1085823276271626
-0.2276451055668254
-0.1446159861614384
0.1446159892577351
0.07277271289542611
-0.07277271136796715
-0.01926668929729449
-0.1086091830868661
0.1278758706520904
0.2405640504344395
-0.183056953903784
-0.02878511812168777
0.02706213662499037
-0.1369594282696935
0.6252955950129995
-0.0390389093981334
0.4250226519229031
-0.04326190852465801
0.063936274181309
-0.153202424834014
0.153202428939497
-0.6366092010893598
0.308575183668835
-0.07937353131215133
-0.2344093702748027
0.003564643708554308
-0.1210906155156503
0.1617202604534883
0.1957284056372463
0.09650329574248137
0.0967170374759615
-0.06186150153192663
0.07279501813119341
0.04160247677892157
0.06398585785899961
0.1061592047051293
-0.09682724238779726
0.2104661059424406
0.01234823399699139
-0.1170756346920177
-0.1001566308613793
0.09712387746729187
0.003032750059250842
0.01233465591072848
-0.02371908976781737
0.03769334125145993
-0.03769334101157361
0.07526411170874099
-0.05499591947064388
0.05499592020231773
-0.224488324505603
-0.05313936746983159
0.01150599375140323
-0.1030589281054515
0.01651275836697175
0.1085181645344119
-0.1085181662086705
0.2945407913399228
-0.2713297363129917
0.1627474035312433
-0.05100202426836004
-0.2203277105792066
-0.01731700196906921
0.01731700102297197
0.3674929920964078
0.2852275630719818
-0.5277666421050174
-0.09397831749739709
-0.0323389671456794
0.5288243938755893
0.2127088168347799
-0.1703784356982677
-0.3799713413911185
0.07647147639710457
-0.1475642775727949
0.1871009688198988
-0.03953669033938449
-0.0669157012425412
0.06691570007923221
0.8225178809936898
-0.5605928170510432
-0.005934031776738282
0.01826868812761712
-0.01998631569948504
-0.286980138046817
-0.0175015126190276
-0.01281804829681329
-0.1319539245655052
-0.5721290431259189
0.5560456064678557
-0.5694372578601886
-0.006872195508669963
0.1028378490897307
-0.001714243564301658
0.01686107569781456
-0.1675506008180396
-0.3363689821882754
0.2333100536750424
-0.05434606894150713
0.03507937695500256
0.1318316536704746
0.1733836321304973
0.33834892015096
0.2763491008635761
-0.2780633458984502
-0.06178342716018366
-0.1551484934837364
-0.2209627993310364
0.07472239702109773
-0.01073653845030325
0.2138366619608312
-0.1969755873862921
-0.08629572159128374
0.1590907420484119
-0.3553241865446379
0.2083156939398456
-0.1918029355204368
0.08957684644685104
-0.4791195152449472
0.1742829104807627
0.1702242848936545
-0.2565200108294897
0.07299794082342471
-0.1945628593192676
0.1770613476618813
0.01742655696679043
0.1416641899843684
-0.03955338667879647
0.065914497840645
0.4670273986452343
0.02037633350275204
-0.08096111940588503
0.05426356731181341
0.1261475503359769
-0.2604994868088827
-0.2308875814798483
0.5597334150871462
0.1574752211528636
0.07871364617502256
0.0751257697156318
-0.03093146183329971
-0.01171041895762584
0.008536545696949874
-0.03275954562560513
0.1709753645216926
-0.1778475611396161
-0.06065001206404873
0.02112810648193019
-0.1469865512062455
-0.05289867073794956
0.1498161127531777
0.2770644622011924
-0.03868665140696907
0.01400324660881346
-0.2556792246241474
-0.1323079882553289
0.2359556224293922
0.1787217211745384
0.1298534731880713
0.02203372871115
0.08883695647636228
0.05232765607509749
0.4529422918713334
0.01538097897081516
0.09744995231759944
0.04349608472636206
0.07189234504263871
-0.1153884267031679
-0.2425390761624842
-0.2007554519901108
-0.01957226112485757
-0.2020550515697915
0.2752514917039965
)
;

boundaryField
{
    FrontBack
    {
        type            empty;
    }
    Top
    {
        type            calculated;
        value           uniform 0;
    }
    In
    {
        type            calculated;
        value           uniform -1;
    }
    Bottom
    {
        type            calculated;
        value           uniform 0;
    }
    Out
    {
        type            calculated;
        value           nonuniform List<scalar> 10(1.033719081262583 1.064184349997921 1.022034274893973 1.019644674439629 0.9956686459698068 1.016405751399649 1.036247249385322 1.062827704857237 0.8672435267706906 0.8820249661905919);
    }
    circle
    {
        type            calculated;
        value           uniform 0;
    }
}


// ************************************************************************* //
