/*--------------------------------*- C++ -*----------------------------------*\
| =========                 |                                                 |
| \\      /  F ield         | OpenFOAM: The Open Source CFD Toolbox           |
|  \\    /   O peration     | Version:  2412                                  |
|   \\  /    A nd           | Website:  www.openfoam.com                      |
|    \\/     M anipulation  |                                                 |
\*---------------------------------------------------------------------------*/
FoamFile
{
    version     2.0;
    format      ascii;
    arch        "LSB;label=32;scalar=64";
    class       volVectorField;
    location    "1752";
    object      U;
}
// * * * * * * * * * * * * * * * * * * * * * * * * * * * * * * * * * * * * * //

dimensions      [0 1 -1 0 0 0 0];

internalField   nonuniform List<vector> 
808
(
(0.7562614512536986 -0.01751817302501311 0)
(1.03122319831742 -0.01249022997888562 0)
(1.116389108893312 0.0001686779442573126 -1.800713411382792e-20)
(1.08512801326281 0.01258040172306359 0)
(1.36139500770322 0.01528176453845307 -3.879169610916604e-19)
(1.038643531340679 -0.009367621722066241 -7.178901722528465e-20)
(1.013820821152611 -0.02027110389403542 -2.341180232295176e-20)
(1.078586569958089 -0.004732489408065453 8.930083027484199e-21)
(1.25233475918503 -0.02014967491283572 6.329629398249429e-20)
(1.084513827057204 0.009126813936439507 0)
(1.01230657073186 -0.01196713741407031 0)
(1.303860952204953 -0.05277041764873542 -3.52519400430202e-19)
(1.086033934051285 -0.001552987384502554 2.030238985380061e-20)
(0.6750408014842232 0.00641451375109958 0)
(1.28346934314547 -0.121187697330082 0)
(1.081783557537875 8.234930485588626e-05 -3.811037870315315e-20)
(1.232429011379969 -0.1528961594593783 -1.001089240794189e-19)
(1.074336304543353 -0.0001286157413070221 3.157756419025231e-20)
(0.9916918284511009 0.006762408745549618 0)
(1.026849662043784 0.009097475465732962 0)
(1.040674080715332 -0.01465589781864866 0)
(0.987508796468538 0.04499573250319659 0)
(1.05106109229425 -0.006188836409485054 5.610183612605052e-20)
(1.053504979099817 0.008334150590814561 0)
(0.9334849638846827 0.1992380619832062 4.591307488941414e-19)
(1.164202989596836 -0.09067535176969159 0)
(1.184416342415178 -0.01893578007570147 1.571309964943342e-19)
(1.077252702325954 0.009472658813380998 5.208464006192036e-20)
(1.084211721712951 0.001879801143161786 5.067022452344177e-21)
(1.07205892745097 0.03098092963416686 0)
(1.075610086985362 0.00249766128702692 -1.175732986451379e-20)
(1.033308893425032 0.006246775444342718 -1.931581546023289e-19)
(1.059878664672717 0.01477167407911691 -2.395177862650625e-20)
(1.088954849111872 0.005202906557725172 -2.927772610871781e-20)
(1.119892914794195 0.03688535702440054 0)
(0.7550246615304201 -0.1208936936520523 -4.542682799256326e-19)
(0.9543707413028705 -0.005751075763041512 0)
(1.068989067140672 0.02248150923223222 0)
(1.06884365742727 0.007280083193804777 0)
(1.073635463929727 0.008756397991911306 -2.829412233229723e-20)
(1.092313905933165 0.02281610695895576 1.101016952127521e-19)
(1.149555353977987 0.00277009573954939 2.15827788016045e-19)
(1.095604460413378 -0.002482247706972114 0)
(1.015783121334821 -0.009241414420862999 0)
(1.128942048655993 -0.09845266150765646 -1.66185393260912e-19)
(1.044069236654892 -0.01177037693207027 -8.068922365728814e-20)
(1.058439549131821 0.02668468914041321 -2.815406621084464e-20)
(1.229608080884045 -0.1115665550402327 -5.614938493942324e-20)
(1.067739159317944 0.01226220361319139 -4.207080463332415e-20)
(1.255399589647644 0.01696095447851762 0)
(0.9969720209835642 -0.01803730384337414 2.081390069005766e-21)
(1.044549506772723 -0.002444015738332998 0)
(1.087352955347695 -0.002374143964566945 0)
(0.9976127168854079 0.007255150538747887 -1.898098518493786e-20)
(1.252508190659729 0.03370861385764167 -2.34270557991102e-19)
(1.063826825648901 0.01842914486562579 6.069071853871694e-20)
(0.9885510739839947 0.00911640536766691 0)
(1.017005428728424 -0.0111066773407195 2.457928653905287e-20)
(1.106718124003604 -0.001179819656109771 -1.183917191643764e-19)
(1.061774855686386 0.03120456315936018 0)
(-0.06469944982650373 -0.02286030373712923 7.166076911520344e-20)
(1.153871625101552 -0.05172789459269977 -1.893464511197305e-19)
(1.002347559948327 -0.008583171666426533 -2.701660047852227e-20)
(1.183868120848528 0.06556858794272788 -1.214627814950785e-19)
(0.9978655179963224 -0.01061580476389605 3.005050393715392e-20)
(1.083826178397157 -0.005542435696267327 0)
(1.242968754039497 0.09459726318674558 0)
(0.6960179965934955 0.00318585367888136 -7.491169875287313e-20)
(0.9898379510134204 -0.01554554929733737 -3.130144368849368e-20)
(1.457903126823288 -0.01751445125811861 4.467517767814346e-19)
(1.060669050572669 0.007554319401449029 -6.739944573029242e-20)
(1.365090449947878 0.0972784415269435 2.90399438412762e-19)
(1.054782822415453 0.006756919315656912 -1.846381357286717e-22)
(1.081142934323428 -0.01412822527243446 -4.798780395870439e-22)
(1.163283441884202 -0.2350473755765192 0)
(1.022593280297217 -0.01445548213141277 0)
(1.017958888512241 0.0176359715038195 -3.098314888177369e-20)
(1.388475810362198 0.3500712592189497 4.186460886276132e-19)
(1.097057414799412 -0.04200649288944315 9.3451782985682e-20)
(1.046353185076146 0.2107696582550566 2.487879989338665e-19)
(1.124197001717973 -0.06331834278389271 1.160557507638283e-19)
(0.9221503915128323 0.005181941785836254 0)
(0.9755297130179608 0.01859176545797931 0)
(1.004044698282436 -0.04868410848331161 2.86444508511673e-21)
(1.010931031067905 -0.01328954413480355 7.448669857471403e-21)
(1.031034397610845 0.02574853488911194 1.387667866570016e-20)
(1.526947789143646 0.03657882049776371 3.261086735430156e-19)
(1.291219369600457 0.07129234038010791 5.526094318845484e-19)
(1.072685024705572 0.002882321803230815 -9.111458663129002e-20)
(1.1983670061047 -0.09838542322755807 0)
(1.033899502191759 0.001492388786572709 1.327920255565712e-19)
(1.163368726065708 0.02113464963465977 -3.190795065088207e-19)
(1.001493847465033 0.03241931823774385 0)
(0.9996298095267326 0.00198722498837253 0)
(1.044241180815514 -0.0003584883164992878 7.78201712272303e-20)
(1.210301896209408 0.1026142040353265 4.012316128984177e-19)
(1.011105967856195 0.006946552166250318 0)
(1.088502416421413 -0.07158773467715138 -1.059894207581219e-19)
(1.149282303652564 0.03581129113771043 0)
(1.209503828395634 0.09141982848393186 -1.895606556685871e-19)
(1.108098927281915 -0.02858119122774036 -7.651935981218677e-20)
(1.027963768361017 0.01157533277339905 0)
(1.085467169542216 -0.004676424276252074 0)
(1.020145852697168 0.0256299908592861 8.060542985236796e-20)
(1.07485663922468 0.05352315976301371 -9.1609286514721e-21)
(1.103659977061064 -0.004379040521376696 6.279970511062453e-20)
(1.105813469540259 -0.09686895190933718 1.547419512954053e-19)
(0.9592903959790752 -0.00326220057625931 0)
(1.066573695597122 0.03141477013717812 3.815593160179691e-20)
(1.167723369809094 -0.07601484791310301 2.313934769781333e-19)
(1.05379846393498 0.04491210835365957 -2.899569240339568e-20)
(1.022803319364958 0.06776585160517025 3.711048167435489e-20)
(1.090712705171925 0.02625118044862805 0)
(1.01192641354497 0.01581431191772208 0)
(1.028969839525664 0.009429400029269447 7.910921225838427e-20)
(0.9486736228186895 -0.03265419854484572 0)
(1.053344920018508 -0.005632403076808598 -7.761096513320948e-21)
(1.33945702385061 0.05907327983034778 -1.57930675463961e-19)
(1.079844362247081 -0.01334881501243241 2.58076114925042e-20)
(0.7441864845144083 -0.001791290377454103 0)
(0.5297048404839086 0.1525338456212133 -8.689934043695682e-20)
(0.7058262638305878 -0.002521339886490383 0)
(0.6991499551712911 0.01467671348912666 0)
(1.077808674613418 0.003465668188677314 -6.68310243295446e-22)
(0.9906340394161814 0.0144551618476726 0)
(1.280486091084076 0.1229381991879065 2.501842377492021e-19)
(1.012273362326974 -0.02794548225172815 -7.719469426868989e-21)
(1.038837793284021 0.02035120365590198 1.368509907020829e-21)
(1.058376516558026 -0.01220643492190896 0)
(1.126384366926167 -0.00925811065631058 -5.005623436885635e-20)
(1.255798547251587 0.1286885344486801 -2.162985604707639e-19)
(1.088837874959448 -0.01106184079009948 -8.472799424824131e-20)
(1.070422482306983 0.02510348653471505 -1.091371995685618e-19)
(1.04096220002676 0.04674089116789265 7.048833482171659e-20)
(1.022290614940732 -0.003567271755812214 -3.443526536124248e-20)
(1.061426604769647 0.0236117515684085 5.977956379184354e-21)
(1.133971638306441 -0.004273885443865885 1.075521827789562e-20)
(1.041320311070083 -0.01301002857432481 -4.679406568910071e-22)
(1.087797370339409 0.03483973112355456 0)
(1.028696388797607 0.0132695343733021 0)
(0.7858885594154217 -0.06654463570452375 -1.84856589471619e-19)
(1.030226151192315 -0.002084156446125759 -6.794146593946766e-20)
(1.137377128686857 0.0004207272612493189 -1.317089838642062e-20)
(0.7035459744190565 0.00655410300966307 7.34996245644331e-20)
(1.176096372223311 0.01953015824899346 -1.928607275807023e-19)
(1.126418642054596 -0.004095283287227663 5.811154545232799e-21)
(1.129036010459013 -0.0100961861944451 3.439662653827604e-20)
(1.000939804843568 -0.002978728632043251 -7.284687387836453e-20)
(1.093886241118308 -0.06359355353386016 0)
(0.9856447874088983 -0.001256473880492199 0)
(1.058019125117359 0.007067065489534665 0)
(1.005945996221985 0.1892604221760837 -2.43098294015393e-19)
(0.7795337777642819 0.01241628894645978 0)
(0.8569471251095505 0.1027809555833571 -8.354521101529677e-20)
(0.0968672033959911 0.04011047480836251 -3.06970013582261e-19)
(1.173451223351645 -0.03159974321131467 -2.243570273881769e-20)
(0.6712716343916313 -0.007357519114876192 2.437569698427167e-20)
(1.165602468723635 -0.1065799066415103 7.000442494718565e-20)
(1.12775853456028 -0.003038240248481246 -6.168312827116442e-21)
(1.15548911214158 -0.05036689111176799 2.180208463291659e-20)
(0.08526864789704472 -0.1948826001224891 0)
(0.2689803040103447 0.07814347699417046 0)
(1.252350524733302 0.1087197478749346 1.890935101143113e-19)
(1.021625128043567 0.01987038649715379 0)
(0.7375839442323963 -0.006335599585661603 0)
(1.074990161769571 -0.01185575796897321 2.693235687487369e-20)
(0.9752550704226525 0.002824961929178792 0)
(1.28580601106916 0.1253987685143664 -1.485785474107678e-19)
(1.057435930662057 0.01120512293218329 0)
(0.9926873299543832 -0.008296196275356117 0)
(1.065282173679508 0.008020445154498602 0)
(1.006215288774201 0.02085930512111757 1.909770521384304e-20)
(0.9226577597521883 0.005072655087534228 1.178193484781888e-20)
(1.175660126054523 -0.1989352214100304 0)
(1.005026258890244 -0.005229420945141323 7.808934393564534e-20)
(1.059213761767283 0.006172739423679286 0)
(0.7745749792501888 -0.003349477815988881 0)
(1.215352195893571 0.02743702966021924 1.650529476998016e-20)
(0.7051157710229046 0.001323367774449068 0)
(1.432629137259606 0.08838761608766112 -5.263310797521739e-20)
(0.993489867034976 -0.006401529116099447 1.666898175937406e-20)
(1.275792684306073 -0.002599127169964184 -2.949218196127671e-19)
(1.060017945017259 0.008757330396625565 1.371033372797352e-19)
(1.000897257734608 -0.01359942666536489 0)
(1.216676940871704 -0.1549332571453035 2.032637870685761e-19)
(0.7331755369237277 0.01379188373619688 0)
(1.098009276532726 -0.005119481778282855 0)
(1.152813976583849 0.06474484342251931 1.979744859344186e-20)
(1.006655153736575 -0.007341011290384396 -3.020174479083255e-20)
(1.120906579774668 0.04970345671494182 -1.737082176667956e-19)
(0.1487121214567492 -0.08574634961488439 0)
(1.073270279028664 0.03685153227244575 0)
(0.6615091434730337 -0.002903625375885717 -6.349922028897956e-22)
(1.012081726831092 -0.01966973706752758 9.470235434371533e-20)
(1.061824135737163 0.0006906136296566223 0)
(1.087101163401696 -0.133773397109934 3.776875598551587e-19)
(1.002510999243554 -0.006187042113141972 -3.437303970395015e-21)
(1.001827460325201 -0.004523892631756618 1.210891127576623e-21)
(1.094000463596541 -0.009242275393194518 0)
(1.020765647550587 0.02024963102374407 -6.38735742731864e-20)
(1.106798341203753 -0.001680385466132397 6.556659481497844e-22)
(1.073747463138304 -0.01088559634201562 6.535321619122768e-20)
(1.085741406562156 0.02235405504728312 0)
(1.32683028589559 0.1635551923718848 0)
(1.002052068583172 0.0003358619541628974 4.413364668186518e-20)
(1.323853137269025 -0.1289750737892057 1.559253096906301e-19)
(0.03251597954825148 -0.1504197396748887 -2.481602564395878e-19)
(1.071288130573815 -0.005559343392364132 0)
(1.116703248700162 0.001855538613289716 1.225914357975484e-20)
(0.7269719063359874 0.01787209328724713 0)
(1.061396582861977 0.002869587971844333 0)
(0.8678220366714104 0.1655880851189045 4.743431928729981e-19)
(1.272705055255461 0.1207114496770798 1.822084975985625e-19)
(0.6541577791005662 -0.003116401374372076 -6.322995145808423e-20)
(1.042279375338347 -0.004362600866412826 -3.72202617793313e-21)
(1.054948215407857 -0.0002697112813872706 6.593048543109354e-20)
(1.359512291692812 0.1232633457605866 6.728341080174671e-19)
(1.337040157424298 0.2529967996719748 0)
(1.058148174696627 0.004131325506998005 0)
(0.9953609307860251 -0.006726473337524913 1.469481490713968e-20)
(0.9947659757603285 -0.00976895307720207 2.387392342342682e-21)
(1.385021566009574 0.2003985368276558 4.275089857013168e-19)
(0.6816728847511705 0.0006520431378452464 9.840394540110328e-20)
(1.005644673289913 -0.002030915909111906 -5.964749925359972e-20)
(1.097982001489478 0.01305010675110282 2.540882797087319e-20)
(0.6694671111661619 0.005005921106023119 0)
(1.066083374730618 -0.01202835116770602 0)
(0.9882509287032573 0.1271858053653694 -1.231593427412017e-19)
(1.082323374608032 0.001023975611073681 -2.471109511711548e-20)
(0.981994983947849 -3.110274561116287e-05 3.286263741974601e-20)
(0.9912104526885102 0.006008045752687896 0)
(0.6382653880051772 -0.001155769344801972 0)
(0.9768870403432021 -0.001275255556058102 0)
(0.6419986250241939 -0.001482218312137749 2.723687559550257e-21)
(1.088219267074182 -0.0577027866281855 1.205839980171998e-19)
(1.111104344940879 -0.001618308859971578 1.233641002331607e-21)
(0.9580639948067208 -0.0009181105351161131 3.910889112283839e-20)
(1.01584757955622 0.01074094793614786 1.666700378423845e-20)
(1.064067815189798 0.007982692348392113 -2.172422391344877e-21)
(0.6347932649310597 0.008846758571255858 -3.644340031571082e-20)
(1.00180243191449 0.01214920429339597 -7.995482417890542e-22)
(1.035599429960376 0.01265507796896986 4.986969661079572e-21)
(0.9880344846597838 -0.007562662514884588 0)
(0.6100838373795616 -0.0004789003034693798 0)
(1.068769813476364 0.02275750976958662 0)
(1.01598241926823 -0.0155988843918065 1.0593739545903e-20)
(1.021814111916921 -0.002508848069532606 0)
(0.9921325969962317 0.01514514470330243 -9.302487729140265e-21)
(1.012174446239109 0.006262789031340817 0)
(1.128729663765145 -0.005959978674501868 -1.252128996881071e-20)
(0.03481190096669495 -0.1380516302944633 -4.576863618865049e-20)
(1.036169646258125 -0.01557558192014096 -7.653451598296074e-22)
(1.045508429065837 0.008225938932011158 0)
(1.086925077440197 0.0651497194219902 8.394803410270511e-20)
(0.969791090135255 -0.001167920788082825 3.118671129348231e-20)
(1.020599949484051 0.01717026629186241 -2.336255908664213e-20)
(1.005101910709147 0.001777958606747046 2.459282547721892e-20)
(1.040833757267235 -0.004720379338818685 0)
(0.6409745109556365 -0.004014197262777099 0)
(1.025948086204221 0.02448987150070872 -7.510671349304445e-20)
(1.079032334252451 0.004765782704471321 4.860523629933856e-20)
(1.013857790555565 0.002478068435991088 0)
(0.9811921801286925 -0.002474763870111815 -1.91179352000807e-21)
(0.8726533453499853 0.02455333961574231 -1.436396581582602e-20)
(1.013967172759842 0.003041748827879759 -1.012463987215536e-20)
(1.027440286275647 -0.000261605251186375 1.770202998018273e-20)
(0.9783156350801905 -0.0003280125011070514 0)
(1.004481515375905 0.00852836027585108 3.416979146394965e-20)
(1.106297971786649 -0.005097147008946539 0)
(0.9289088257003681 0.001108160849401388 -3.448678267598236e-20)
(0.9596554642966967 0.008675493482843964 0)
(0.9111844533833923 0.2093204859134118 5.151825494709701e-20)
(1.01101366223997 0.06727699416804091 0)
(0.991874385006882 0.003649211602323271 -2.312123464949125e-20)
(1.053022253365264 -0.05216184285766941 -2.755637317334764e-20)
(0.9916343637521376 -0.001354372540852262 3.407884847418575e-20)
(1.010615521135173 0.001923554273137487 0)
(0.9793897089249715 -0.0008763440654041381 -3.179752049552458e-20)
(1.172291145440315 0.09542591403325142 -3.310911487513626e-19)
(1.068254476072325 -0.2635017862903653 0)
(0.9944403227720681 0.002100137301933469 -2.195969337239329e-20)
(0.9822280634034564 0.00956391963392083 4.948460352746901e-21)
(0.9593530447715661 0.001684059079405922 1.060499716367193e-21)
(0.7460058337026101 -0.001097514017299126 0)
(1.113718470404462 -0.07745665006400347 0)
(1.008184919430778 0.001628132750101531 -2.138580793642327e-20)
(0.8975271556985212 -0.002201195965884766 -1.0435834790821e-20)
(0.851872621264953 0.01689951850491448 5.721829628372064e-21)
(1.010562743443632 0.005647136133411825 0)
(0.9515040450038524 0.003153541253887301 1.585470117327359e-20)
(1.005814271426341 -0.0002323266336842443 -2.293499417057407e-20)
(1.022247256577504 0.002433860092524473 -2.544336383958607e-20)
(1.111291772064767 -0.005412300559579338 -4.906533840823383e-21)
(1.115219297165288 -0.002712447944020302 0)
(1.012267834537906 0.0008032911341502658 0)
(1.024573347691074 0.001785052365765632 0)
(0.9501243109957369 0.008151950175752185 -2.182285298514223e-20)
(1.01788411223164 0.01323270196835578 5.426821760336148e-20)
(1.079996077666754 0.00764321963509656 -2.242125203406628e-20)
(1.037245718019897 0.005882361749094448 0)
(1.106499221347798 -0.0065848829461724 1.812522248865737e-21)
(0.9963142936718707 0.001783818325872603 -2.207610067878991e-20)
(0.9831049664073528 0.004999196549863296 0)
(1.011719216677214 0.002135563397565017 4.681465067672469e-20)
(1.364125057280306 -0.3137403045794092 -1.127290206098132e-18)
(1.12209038357977 -0.04559907922906588 -1.092917521184495e-19)
(0.9734446304290584 0.007877198790642864 4.892828567434131e-20)
(0.7834332131876279 0.02441045514902878 -3.349683102808155e-20)
(1.220325767479634 0.05073463179057079 0)
(1.217840412700863 -0.1380494093181535 -1.468942173027816e-19)
(1.081002795228483 0.005692872704327125 0)
(1.009465510931248 0.001627197127010096 2.219838851796612e-20)
(-0.1683875642977234 -0.07626961278488523 0)
(0.9939708343853242 -0.004665215560588482 0)
(1.012395365915714 -0.02313222057981166 4.302298335955761e-20)
(0.7061035459835491 -0.01942034848423425 0)
(1.096802278768082 -0.01501334208865969 2.250026633199538e-21)
(1.041895559566036 -0.004253759242550262 1.530278544286781e-20)
(0.6331090494347398 0.004179923794549313 0)
(1.446221936867089 -0.1225451492880706 0)
(0.9867247375380995 0.001870530693789872 -1.083317520107811e-20)
(1.069664253380134 -0.0149409624554657 0)
(1.038108839327998 0.0005232510208532661 2.144000741052018e-20)
(1.087113172285433 -0.0004581383423215092 0)
(1.008636068599571 0.001117571516375412 -1.149058061007324e-21)
(1.006197531664465 0.003062667712906738 0)
(1.014163581956718 -0.01206820384476157 3.378641335991016e-22)
(1.003146551593191 -0.02027326508931395 0)
(1.033507528034989 0.004041193077862515 1.82240790160117e-20)
(-0.2108157775433451 0.0498038480142074 2.70349534489278e-19)
(0.8221207572356877 0.03857246804154444 5.548735967984683e-20)
(1.005465402901504 0.002283678784609122 0)
(1.128680439399757 0.02506786403977939 -1.294307667973935e-20)
(1.115451075644201 0.01764383411970083 9.230827336440764e-21)
(1.053905019542268 -0.01311063746535255 -1.291026583760237e-19)
(0.9987814467947373 0.01037002899532139 6.961823525284626e-22)
(1.081819621725127 0.003250463969736234 0)
(1.185452201817623 0.05092149583647718 0)
(0.8352315495481478 -0.0744429748014456 4.598859715918239e-19)
(1.101151283636911 -0.01477487317356077 0)
(1.032451002612323 0.007820099796904444 -7.508849903092153e-21)
(1.042768132219058 0.0052930403899351 6.016847684796666e-21)
(1.051072318268565 -0.06115154999706857 -7.486572099121014e-21)
(1.140269421794739 -0.001991317152657933 1.684527140956455e-19)
(1.078324475181584 -0.003765773815021198 0)
(0.9952270337369614 0.001462007931432965 0)
(0.9969765641355776 -0.02385315900179292 -2.265706526819704e-21)
(0.9915402127237142 0.002669420166468425 0)
(1.028999294704287 -0.03797657803407112 6.395683787314934e-20)
(1.294680591465096 -0.09570274384879995 0)
(1.047419803666866 -0.01530524358648649 -6.319983320575517e-22)
(0.986160486093079 0.01684556111698253 -8.680327299782345e-20)
(1.035465584084186 0.04144153339995636 -2.393809698383787e-21)
(-0.09251797039384531 0.1749887064718882 -1.649119550024066e-19)
(-0.06263434629269427 -0.2864386731896072 -1.395805415500835e-19)
(0.8598658143632684 0.120230053160145 0)
(0.2889339354815028 -0.003464185293528228 -3.030178710545052e-19)
(1.013354698088632 -0.01848179125130208 -1.452843102263013e-20)
(1.063968001527843 0.002616864249534851 -2.104874912085735e-20)
(0.993352970439122 -0.01945826798882288 2.881236984165335e-20)
(1.023487516956735 -0.02672383060410301 2.502499938787665e-21)
(1.008283408083456 -0.03126926060132797 -6.5750958041933e-20)
(0.9886909124690303 0.004885104271624619 -3.47581370491363e-20)
(0.9935137563405874 0.004255654559134644 0)
(1.024822875702292 -0.001808388960559891 -3.59030489307488e-21)
(1.933694731190751 -0.1553334370887434 1.072956925547891e-18)
(1.052329497123399 -0.01636936161379768 0)
(0.995847477037088 0.007344143491363344 1.530023275967668e-20)
(1.002859001495738 -0.0002126523949176777 4.074191411205451e-20)
(1.17510043593864 0.1352928258738492 0)
(1.003854908780519 -0.01198315057483071 -5.859487544536894e-22)
(0.9506952952121827 -0.00239194517043833 0)
(1.03784697169565 0.041732763032489 0)
(1.295128769013298 0.1602909231492617 2.219915709802428e-19)
(1.083043223772187 -0.01125430382764574 2.263375306050229e-20)
(1.018281707042119 0.03217379980844759 4.680628433504385e-20)
(1.082138686982191 -0.008662190265715538 -2.183386671913301e-20)
(1.05267523839533 -0.0101313560104051 9.824960490192145e-22)
(-0.3841711883457239 -0.03684268941102593 0)
(0.9980378785938754 0.01381596088170763 0)
(0.1160460429011223 0.05959062967486135 -8.643652979124596e-20)
(1.006012853938253 0.0228514888629222 -4.131289175148756e-20)
(0.9952462122611211 -0.00361861371457705 0)
(1.000303678796175 0.005815563948632637 -5.05029202902463e-21)
(1.081530538070859 -0.04210183600164272 0)
(0.9958867801320384 -0.01808676500741633 -7.746100591811107e-21)
(1.089831148866628 -0.04949414984261859 0)
(1.441091624964479 0.1767914648910836 0)
(1.05412755086737 -0.0117479387720558 0)
(0.9912873505342994 -0.02253160335689133 -3.873681047245548e-20)
(0.9817072908106231 -0.0333458735143871 -2.247029223760291e-21)
(1.019673901390089 -0.01752849860443897 -1.791218511850047e-20)
(0.9975327642067928 0.0171667417468372 -5.599474372648336e-20)
(0.9950695214400375 0.009884246671221474 -1.491111165800284e-20)
(0.9938304736876753 -0.02645022815979692 0)
(1.002741212743407 0.02572439910991317 1.951957263943872e-20)
(1.03955757643539 -0.03643336378889999 0)
(1.110550995385643 -0.03600767171023612 2.59509031266918e-19)
(0.9953022437908242 0.01731630865674501 4.633208841088113e-20)
(0.6151178791041837 -0.008670153403760322 0)
(1.142299364252135 0.1337589417035121 -4.063221932032435e-21)
(0.8443047239156649 -0.1029621828285143 0)
(1.138960732841698 0.07301130287511165 -2.720087224568866e-19)
(1.314252362983986 -0.387622710617775 1.289008270495752e-19)
(1.076390461600028 0.06257577827952281 -1.338024565722633e-20)
(1.009517984568167 -0.02994142216921223 0)
(0.9551300423050834 -0.2144227366951232 0)
(0.5111012323156769 0.1480039499227767 0)
(1.012099650246146 0.01162366531687382 1.120722163284499e-21)
(0.7015442563022144 -0.01932858370063999 0)
(0.9982101039860912 0.01804369017268955 3.556546312782646e-20)
(1.021077136244243 -0.00200323007477031 -2.727856514928352e-20)
(1.079177773201554 -0.008054377855744543 2.770698593098336e-21)
(1.040271143629957 -0.006034616376884362 3.225654192640337e-20)
(1.042695402079161 0.0108884824758449 0)
(1.056890223994225 0.02973323347640713 -1.017626474911064e-20)
(1.051223781652399 0.03439584812032859 -1.812251101367025e-20)
(0.9827148078125576 -0.02176632170475095 0)
(0.624933781096124 0.005136998052926233 9.184438728263457e-20)
(0.894174434737083 -0.005885893892837279 -8.859473445293065e-20)
(0.9093589401619369 0.005315171766459973 1.441915186699412e-20)
(0.6295776170814498 -0.006382503840568123 1.406612621953844e-20)
(0.9783081586895382 0.0003114536602507696 2.630683186488231e-20)
(1.004450932994072 -0.01759905570677443 -3.492675180968239e-20)
(0.9660804311948265 -0.01277227810283865 -3.468382045368539e-20)
(1.085514452523509 0.001459928420594921 0)
(1.01905998883757 0.00443671385815739 1.075464854628942e-20)
(1.133150968285713 0.04853187921774375 1.314528638842628e-19)
(1.03429158999144 0.04173524336748564 0)
(1.022110502501853 0.002602237520410646 0)
(1.582090068059091 -0.1667311852244052 4.395560685885862e-19)
(1.039354123340388 -0.02998991212342144 0)
(1.02049115038952 0.006667012882645531 -3.711694604337833e-20)
(1.088927436378473 -0.004518017128958982 0)
(0.4810876906510654 -0.02952530748788658 0)
(-0.04047137278608164 0.01108779704947698 0)
(0.9899523650342352 -0.02391676856675163 1.221419755778165e-20)
(1.29988138826327 -0.09536558780030864 3.730380122802152e-19)
(1.0350116817215 0.03912861806803036 0)
(1.022506801305281 0.003311001337243744 -2.240575580148263e-20)
(0.9538976419892348 -0.1652197247159126 1.299454062275213e-21)
(1.252297363469157 0.0760106354683148 0)
(0.5987183568560195 0.7320192221502774 0)
(1.308390249367358 0.1496711001345839 1.103580996460576e-19)
(1.675377054210714 -0.02484821728662895 0)
(1.066325826759367 0.1148391747292341 0)
(0.7226299670339458 -0.006935132562681609 2.632314523984639e-21)
(1.052511506288697 0.04811556629788747 0)
(0.7154100575759644 0.1003738182588057 1.20273335722556e-19)
(0.9967981275493539 -0.01639927052271259 3.575809184846343e-19)
(1.033381529057495 -0.03995240711573263 2.665430781114888e-20)
(-0.3736849957844027 -0.01826506791382767 0)
(1.071562629847839 -0.01627559923294718 0)
(1.096218837689356 -0.01422815931668729 0)
(0.647551632280306 -0.5010738890860629 -2.493502476684573e-19)
(0.9922979725352431 -0.0007983925143427714 0)
(1.091774114443722 -0.02183759317059092 4.80158384333822e-22)
(1.188773828836615 0.1213558139797092 -2.00762487351158e-19)
(1.089771731297535 -0.03885097623601377 0)
(1.005011410394551 -0.02121507646359839 0)
(0.8150986825576862 -0.1900739181452022 -1.737578430653114e-19)
(0.9002497869417151 -0.1363995005674742 1.541411591785618e-19)
(1.028267648843853 0.01053371944460724 -2.212172184280025e-20)
(1.023118106729612 -0.009234864555258007 -4.49741657123444e-20)
(0.8698267204240341 0.005479227494511534 -3.648898711191872e-22)
(1.503620242869767 -0.1931113867692224 0)
(1.301060423666394 0.11780328905156 3.184321208971114e-20)
(1.245145212680739 -0.07769423325206291 -3.005142169861247e-21)
(1.095875529489241 -0.01864071661814485 -3.855296134076376e-20)
(1.043960502203172 -0.01429792346901811 2.566086672618546e-20)
(1.092811088069066 -0.03916686602216935 9.214030839586124e-20)
(1.032490412089662 0.01960491235252858 0)
(1.045482502980154 -0.03262491703703801 0)
(1.115874680798236 -0.009031399283104032 0)
(1.08952496626488 -0.02556988196073284 0)
(0.9978912764990745 0.01094269893063675 0)
(1.150540761017239 0.07523936815763405 9.414497757712007e-20)
(1.344063772842795 -0.1524821923142026 0)
(1.04039314320331 -0.02102781225070654 -1.87246550189427e-22)
(1.053730925683804 0.0527292294941937 0)
(1.00997121231125 0.01460835729357387 -3.944536365315766e-20)
(1.033676601852482 -0.008138330212550159 9.144954880549038e-21)
(1.08898021897209 0.01332952823820558 -3.23567570761594e-20)
(1.084803372083822 -0.02968584512532171 0)
(1.07644518788633 -0.003961168923544937 0)
(1.105461156184726 0.09419810701615121 -1.419337987164915e-18)
(0.9351220561784217 -0.148721641564707 -7.083648998563493e-20)
(1.174485264203183 0.1046760004089598 1.101972543043461e-19)
(-0.4740350697435324 0.004458740435497497 -2.925507215777831e-19)
(1.019538949175868 0.02897879699104891 -8.79574989146499e-20)
(1.005171079177111 -0.005094485411898417 0)
(-0.2887442045261207 0.03956734804116387 3.557884165215873e-19)
(-0.0541378210020069 0.3292080269131312 7.30914441161829e-21)
(0.9952274607735644 -0.006317367602673396 9.529005383289601e-20)
(0.1899379210150661 -0.03930382542193577 1.424758004174778e-19)
(1.097414550517603 0.0842268572637515 1.521210651148775e-20)
(0.09382257003690946 -0.1076730578012028 -5.435147779814219e-20)
(1.107856812884663 0.003111984229156772 0)
(1.100138068519559 0.256550759531709 0)
(1.021767549963951 0.02197623738554367 -1.722672288640136e-20)
(1.073808152305697 0.05879007774802167 0)
(1.025228686885594 0.0271616049155586 -9.558093709566457e-21)
(1.261500205411807 -0.5479649560325999 8.023784090427334e-19)
(-0.08964540344842695 -0.1993061323523381 2.176445917806901e-19)
(1.295263624632963 0.1158474113334877 -6.267460157819402e-19)
(1.123913940431618 -0.001102721972825164 0)
(1.133478281446363 0.09720945138157425 0)
(0.5265137156590228 0.08197764761783077 2.540110809571707e-19)
(1.023131024474325 -0.02112480358666271 9.368934146362146e-20)
(1.005442162656015 -0.0239003144715612 0)
(1.212496424099145 0.271560269647551 -9.646616925798923e-20)
(1.253714179858132 0.1368640688393088 -1.577808269110911e-19)
(1.026582858874094 0.002750812987978002 1.545860641317534e-20)
(1.298701756468137 -0.08455071501299423 -5.002147970584222e-19)
(0.298572242557601 -0.01633765307144471 2.640510788470884e-19)
(0.8295479193019684 -0.1468738444606229 6.718126372783434e-19)
(1.058102593116724 0.0654477755542596 1.055611519244324e-19)
(1.041307230095312 -0.008182569122678871 1.485020823328814e-21)
(1.001264082003605 0.02012070506940564 2.963944152065158e-20)