/*--------------------------------*- C++ -*----------------------------------*\
| =========                 |                                                 |
| \\      /  F ield         | OpenFOAM: The Open Source CFD Toolbox           |
|  \\    /   O peration     | Version:  2412                                  |
|   \\  /    A nd           | Website:  www.openfoam.com                      |
|    \\/     M anipulation  |                                                 |
\*---------------------------------------------------------------------------*/
FoamFile
{
    version     2.0;
    format      ascii;
    arch        "LSB;label=32;scalar=64";
    class       volScalarField;
    location    "46.8";
    object      p;
}
// * * * * * * * * * * * * * * * * * * * * * * * * * * * * * * * * * * * * * //

dimensions      [0 2 -2 0 0 0 0];

internalField   nonuniform List<scalar> 
808
(
0.14962
0.038743
-0.016065
0.149598
-0.159702
0.0444017
0.0353618
0.0435172
-0.0636862
0.0188739
0.052383
-0.0788389
0.0387843
0.037458
-0.406421
0.0414614
-0.443401
0.0363808
0.0124283
0.0406621
0.0112894
0.364511
0.0658951
0.04063
0.438959
-0.146989
-0.00682095
0.0134675
0.0313101
0.0220119
0.0270684
0.0517374
0.0285179
0.021695
-0.0313199
0.634457
0.0318428
0.0256401
0.0467927
0.0246499
-0.00572408
-0.00670412
0.0431841
0.0412507
-0.0670385
0.0812939
0.0281571
0.0567395
0.0414089
-0.0982143
0.0355944
0.0580963
0.0466596
0.0210399
-0.133016
0.0396127
0.0225222
0.0359503
0.023034
0.0378178
-0.276636
0.0491945
0.0449306
-0.111457
0.0426643
0.051791
-0.159141
0.0296238
0.0253211
-0.211188
0.0459963
-0.239701
0.0484266
0.0401952
0.224579
0.0202847
0.0197102
-0.143317
0.0340247
0.285877
-0.0996728
0.0319916
0.0439278
0.298713
0.017899
0.00440092
-0.28286
-0.162846
0.0595289
-0.21953
0.0722147
-0.0456857
0.23773
0.146826
0.0432561
-0.140951
0.0261833
-0.0601946
-0.0523879
-0.127196
0.0370389
0.0309395
0.0720854
0.0076714
-0.0677901
0.0557657
-0.0738178
-0.00555447
0.0389769
0.0753389
-0.0433215
0.31197
0.0445343
0.0716821
0.0313104
0.45898
0.0443953
-0.191065
0.0331652
0.0893231
-0.228868
0.0465777
0.0439806
0.0911807
0.100094
-0.101934
0.142131
0.0618472
0.0703989
0.0666814
-0.13104
0.0397991
-0.00514757
0.101533
0.0335693
0.0403629
-0.00614387
0.00145678
0.0479222
0.0409663
-0.437508
0.081277
-0.037557
0.0443043
-0.0718746
0.0731041
0.127472
0.185348
0.109991
0.0140337
0.0426544
0.320929
0.0622007
0.525249
-0.395216
-0.125459
0.0395365
-0.164513
-0.0175138
-0.128032
-0.257513
-0.417628
-0.172165
0.0502398
0.0631438
0.032054
0.0538412
-0.165455
0.0441315
0.0421483
0.0720831
0.143371
0.0382328
0.163848
0.0345888
0.102388
0.0670095
-0.0862364
0.0458824
-0.268453
0.0403504
-0.201171
0.0486587
0.289993
-0.387714
0.112012
0.0338252
-0.0922801
0.0354607
-0.0456936
-0.422276
-0.027315
0.0304311
0.116729
0.048257
-0.440169
0.0308793
0.0528156
0.0179541
0.0666667
0.0988666
0.0445428
0.0332156
-0.240651
0.366778
-0.385514
-0.265658
0.0242551
-0.00880526
0.0444634
0.00960835
-0.319178
-0.132456
0.0307754
-0.0454724
0.0399631
-0.243351
-0.101951
0.00365445
0.0499118
-0.0178862
-0.154584
0.0449224
0.0450803
0.00878767
0.034142
0.118748
-0.159792
0.0830082
0.0283743
0.108916
0.0351659
0.0406002
0.022364
-0.0685347
0.00298809
0.0211526
0.00343401
0.000854029
0.0208747
0.00267383
-0.0144475
0.0150734
0.0165689
-0.00833221
0.0187827
-0.0176014
-0.0167857
0.0211646
0.044018
-0.253681
-0.0036734
-0.00220304
-0.0939583
0.0203818
0.0371961
0.0422018
0.00948486
0.0395263
0.109761
0.0797283
-0.00191605
0.00527789
0.0441157
0.0168084
0.0188008
0.0161723
0.0754544
0.0496894
-0.0379334
-0.00074434
-0.320932
0.254902
0.00105583
0.0653046
0.0322737
-0.00447659
0.0199322
-0.132475
0.310383
0.0559683
-0.0132239
0.0130283
0.117462
0.00883006
0.0160947
-0.0234693
0.027487
-0.00170518
-0.00911551
0.0456015
0.0377485
0.0634323
0.0285122
0.0187284
0.0357584
-0.0532118
0.0466806
0.0570545
0.0289854
0.0439699
0.0428114
0.0332739
0.00876056
-0.414929
-0.0910886
-0.0555392
0.0173751
-0.103606
-0.264055
0.0355587
0.0384478
-0.269439
0.159844
0.18679
0.0382308
0.0344596
0.0451868
0.0107507
-0.151608
0.0430628
0.0106522
0.0340345
-0.0262195
-0.0333574
0.0437842
0.0330647
0.0367264
-0.0104589
-0.325083
-0.020222
0.0344563
0.0261167
0.0636913
0.0268911
0.215115
-0.00615641
-0.0933285
0.556023
-0.0151781
0.00837698
0.0408675
0.0414162
-0.0751984
0.0762917
0.0415001
0.0557353
0.0727372
0.00275408
-0.349878
0.0547023
0.0941439
-0.0294057
-0.342359
-0.256908
-0.185036
-0.245338
0.0104906
0.0494314
0.0422879
0.0432793
0.0288024
0.0178477
0.0551964
0.0131651
-0.411377
0.000125348
0.0677798
0.0191434
-0.314288
-0.0677846
-0.019531
0.143734
-0.223719
0.00293213
-0.0134528
0.0322468
-0.112968
-0.303437
0.0587219
-0.426977
0.0432057
-0.100561
0.0160403
0.0350019
0.0396115
0.129352
-0.257487
0.0350948
0.0366821
0.00804581
0.0152498
0.0288695
0.0644405
0.0382051
0.0224549
0.0569646
0.078938
0.0470814
0.0224325
-0.221937
-0.0305304
0.0275062
0.0506072
-0.100972
0.0347544
0.449599
-0.250598
0.000251417
-0.260253
0.05053
0.0344299
0.0383465
-0.071274
0.03678
0.0327092
-0.0238143
0.0390311
0.00209633
-0.00430221
-0.00801876
-0.00855419
0.0265184
0.149312
-0.0527922
0.0239416
0.0264648
-0.014404
-0.0456675
0.0400458
-0.292139
0.0722345
0.0796681
-0.0171939
-0.253311
-0.270485
0.0352622
-0.0241299
-0.0349743
0.0481544
0.0391837
-0.13897
0.157671
-0.23055
-0.363636
-0.346752
-0.12513
-0.073438
-0.207804
0.362132
0.0371862
-0.314958
0.0351793
-0.0340139
0.611261
0.0179494
0.0550139
0.00877637
0.105052
0.0255422
-0.217074
-0.464434
0.0859861
0.0978287
0.00162606
-0.186873
-0.200869
-0.30747
0.0329363
-0.00182997
0.0875898
0.0185516
0.0348759
0.0749306
0.107761
0.0567585
-0.111428
-0.422476
0.0416042
-0.0715273
0.0519239
0.00216568
0.111477
-0.0524156
-0.0358262
-0.378194
0.469393
-0.165705
-0.324901
0.000782331
-0.0679958
-0.359878
-0.362723
0.152733
-0.25631
-0.2138
0.873531
0.0347587
-0.281025
0.0360825
-0.119641
0.0332259
-0.361026
-0.423257
-0.210543
0.00642512
-0.245319
-0.282723
-0.00126982
0.00566809
0.0524153
-0.199417
0.021421
-0.409892
-0.442271
-0.512938
-0.270231
-0.0793262
0.0397358
0.0999631
0.158626
-0.00980015
-0.300355
0.328361
0.033456
0.032737
-0.354933
-0.408031
-0.228763
0.0317772
-0.27106
0.114712
-0.0529456
-0.0153726
-0.1829
-0.146428
0.0222957
-0.268314
-0.444913
0.0174066
0.0249017
0.0557724
0.00806274
0.0243274
-0.29636
-0.269004
-0.0400944
0.0732627
0.0548419
-0.253802
-0.409784
-0.149219
-0.317053
0.0205098
0.0874399
0.0219241
-0.135626
-0.415931
0.0793703
0.0609027
-0.211602
0.0344331
0.0249709
-0.450048
0.0223629
-0.171945
0.00930592
-0.396811
-0.0598964
3.17451e-05
-0.491941
-0.588131
0.0103158
-0.378043
-0.372102
0.0179195
-0.159877
-0.381823
-0.0051404
-0.280231
0.0554786
0.0429299
0.0998864
-0.23885
0.109693
-0.0799016
-0.568069
-0.0416584
-0.351305
0.038649
-0.223722
-0.639444
0.140816
0.236573
0.450134
0.005593
0.0134334
-0.00184491
-0.262376
0.638986
0.0360983
-0.290747
0.0535882
0.0107199
0.122472
0.458903
-0.494767
-0.00784381
-0.0306872
0.0581787
0.0261219
-0.58507
-0.320926
-0.293789
-0.469658
-0.193765
0.0292388
-0.268319
0.110013
-0.358858
-0.415719
0.462235
0.556724
-0.5157
0.161965
-0.368043
0.0182096
-0.151852
0.351493
-0.0866301
-0.253264
-0.061428
-0.633431
-0.0280276
-0.274813
-0.0855164
-0.425732
-0.387427
0.00275175
0.0144295
-0.250781
0.495454
0.661744
-0.201503
-0.420466
-0.250065
-0.0358578
-0.416613
-0.397849
-0.226772
-0.245044
0.723793
-0.452695
0.776043
-0.327462
0.359374
-0.22723
0.0072754
0.137452
-0.629232
0.288577
-0.375265
-0.41554
-0.444019
0.861663
-0.348614
0.24214
0.189392
0.672287
0.160199
-0.553359
-0.433669
-0.114183
0.0207923
0.0203165
0.572012
0.0331086
-0.0305881
-0.398006
0.0452027
-0.0601858
-0.236087
0.0234444
-0.506129
-0.0783281
-0.246591
-0.288505
0.0198205
0.139718
0.0242629
0.0589029
0.148523
-0.448643
-0.46134
-0.0296777
0.000779658
-0.581312
-0.637313
0.113644
0.164948
0.123611
0.639065
-0.0194391
-0.201486
-0.483294
-0.405947
-0.0019502
0.0287745
0.750116
-0.56963
0.422916
0.0201258
-0.558011
0.129699
-0.154473
0.423773
-0.205279
0.0239911
-0.262726
-0.0078641
0.253117
0.83602
0.358081
0.738829
-0.238174
-0.418288
-0.334473
0.115861
0.248141
0.0560998
0.34384
0.203079
0.50458
0.233872
-0.00739058
-0.119472
0.0732454
-0.414327
0.884587
0.429063
0.61226
0.511492
-0.356742
-0.237359
-0.385841
-0.295638
0.045526
-0.320257
0.161557
0.574881
-0.222452
0.040664
-0.282757
0.167036
-0.435935
-0.489953
-0.0964631
-0.408059
-0.44918
-0.316862
-0.267434
-0.0610937
-0.335943
-0.0631218
-0.0813339
0.116653
0.694296
-0.297429
-0.236991
0.808302
-0.237883
0.327634
-0.315863
0.444492
0.125975
-0.1672
-0.515673
0.398335
-0.199325
-0.416215
0.237776
-0.364007
0.00857261
-0.407773
-0.197766
0.0351346
0.595885
0.78764
-0.406052
0.261883
-0.272726
0.820214
0.0213668
-0.408911
0.00405207
0.78424
0.18805
-0.418655
-0.39994
0.488084
-0.284044
-0.0113237
0.303634
0.237366
0.326221
-0.332734
-0.436962
0.693242
)
;

boundaryField
{
    FrontBack
    {
        type            empty;
    }
    Top
    {
        type            zeroGradient;
    }
    In
    {
        type            zeroGradient;
    }
    Bottom
    {
        type            zeroGradient;
    }
    Out
    {
        type            fixedValue;
        value           uniform 0;
    }
    circle
    {
        type            zeroGradient;
    }
}


// ************************************************************************* //
