/*--------------------------------*- C++ -*----------------------------------*\
| =========                 |                                                 |
| \\      /  F ield         | OpenFOAM: The Open Source CFD Toolbox           |
|  \\    /   O peration     | Version:  2412                                  |
|   \\  /    A nd           | Website:  www.openfoam.com                      |
|    \\/     M anipulation  |                                                 |
\*---------------------------------------------------------------------------*/
FoamFile
{
    version     2.0;
    format      ascii;
    arch        "LSB;label=32;scalar=64";
    class       volScalarField;
    location    "1513.5";
    object      yPlus;
}
// * * * * * * * * * * * * * * * * * * * * * * * * * * * * * * * * * * * * * //

dimensions      [0 0 0 0 0 0 0];

internalField   uniform 0;

boundaryField
{
    FrontBack
    {
        type            empty;
    }
    Top
    {
        type            calculated;
        value           nonuniform List<scalar> 
15
(
142.2898442320767
133.5858940406078
138.0656046032144
144.4063153102746
159.7673878876528
131.3676226152128
140.135248262222
135.3560021573315
153.4548438355548
135.7274918063188
136.0913492066634
136.7711744902316
125.2670572158187
132.9136462906032
123.9553141712144
)
;
    }
    In
    {
        type            calculated;
        value           uniform 0;
    }
    Bottom
    {
        type            calculated;
        value           nonuniform List<scalar> 
15
(
155.5671071421022
158.11924206242
141.086376386003
142.0423042371016
141.1778809358596
148.4261837931351
142.7010802137322
143.1466966261234
143.4217217146107
134.0595632810843
125.7260679554425
141.5559362514372
122.40481630262
123.4859964487389
124.1301041038267
)
;
    }
    Out
    {
        type            calculated;
        value           uniform 0;
    }
    circle
    {
        type            calculated;
        value           nonuniform List<scalar> 
32
(
56.08042036860011
22.09389724917947
65.26488678246699
24.83063861552038
19.83850184164364
56.18207811008185
56.65530092622249
23.79200044257675
22.28366617793409
65.50575870491876
39.85622738887094
62.95630056851437
50.55659485323034
16.68122278732103
23.09665217086395
17.93238365188249
39.24241509314402
59.75240843392858
61.0218313013782
24.5725142275434
65.75433380283519
63.79882504203982
63.04534643195877
59.90795786712259
64.12125662018393
45.95421377901441
66.41622912071556
32.05957245616209
37.99207987595605
55.74018767884584
21.04584867626372
43.14514853082173
)
;
    }
}


// ************************************************************************* //
