/*--------------------------------*- C++ -*----------------------------------*\
| =========                 |                                                 |
| \\      /  F ield         | OpenFOAM: The Open Source CFD Toolbox           |
|  \\    /   O peration     | Version:  2412                                  |
|   \\  /    A nd           | Website:  www.openfoam.com                      |
|    \\/     M anipulation  |                                                 |
\*---------------------------------------------------------------------------*/
FoamFile
{
    version     2.0;
    format      ascii;
    arch        "LSB;label=32;scalar=64";
    class       volScalarField;
    location    "1352.5";
    object      yPlus;
}
// * * * * * * * * * * * * * * * * * * * * * * * * * * * * * * * * * * * * * //

dimensions      [0 0 0 0 0 0 0];

internalField   uniform 0;

boundaryField
{
    FrontBack
    {
        type            empty;
    }
    Top
    {
        type            calculated;
        value           nonuniform List<scalar> 
15
(
142.2719177260794
133.5614221675213
138.0681133160351
144.3959260125616
159.7675589630979
131.3680823841676
140.1174865457349
135.352292693775
153.4328451220894
135.7444328887887
136.0896745775115
136.775276664905
125.2401934938976
132.9012797756344
123.94740734346
)
;
    }
    In
    {
        type            calculated;
        value           uniform 0;
    }
    Bottom
    {
        type            calculated;
        value           nonuniform List<scalar> 
15
(
155.5656775589403
158.1117220458564
141.097310272337
142.0755403031928
141.1859189892741
148.4510061204767
142.7089626706474
143.1691943573213
143.4235485748263
134.0592044259216
125.7358975422918
141.5558221727258
122.4127425689638
123.49178977429
124.1430279509359
)
;
    }
    Out
    {
        type            calculated;
        value           uniform 0;
    }
    circle
    {
        type            calculated;
        value           nonuniform List<scalar> 
32
(
56.34521540504709
21.97858378377185
65.29820431288283
24.25133725124385
19.32314275885293
56.21366128947228
56.79430454640958
24.18657985353466
22.26502985471672
65.51576753926712
40.17638824014053
63.02962637889679
50.34155280706226
14.00755658171415
23.49327556822806
19.29885970902287
38.91697061165569
59.62554948931283
61.03957089080453
25.62462246594455
65.74554235394008
63.79421043001021
62.97949947168544
59.8920711083122
64.12627296149478
46.00572566673684
66.38710060214993
32.14416075075856
37.95162575311029
55.71538580465551
21.22372459872635
43.11331173298315
)
;
    }
}


// ************************************************************************* //
