/*--------------------------------*- C++ -*----------------------------------*\
| =========                 |                                                 |
| \\      /  F ield         | OpenFOAM: The Open Source CFD Toolbox           |
|  \\    /   O peration     | Version:  2412                                  |
|   \\  /    A nd           | Website:  www.openfoam.com                      |
|    \\/     M anipulation  |                                                 |
\*---------------------------------------------------------------------------*/
FoamFile
{
    version     2.0;
    format      ascii;
    arch        "LSB;label=32;scalar=64";
    class       surfaceScalarField;
    location    "1945";
    object      phi;
}
// * * * * * * * * * * * * * * * * * * * * * * * * * * * * * * * * * * * * * //

dimensions      [0 3 -1 0 0 0 0];

oriented        oriented;

internalField   nonuniform List<scalar> 
1171
(
-0.9279069562767497
0.9279069562274789
0.7874159793773362
-1.099235058527389
0.3118190793755933
-0.1897484136939262
-0.766120752872633
0.9558691665137381
0.07209303613405399
-0.1174078155194629
-0.2124059440731814
0.3298137588485026
-0.7874159704568053
0.06940275579580869
0.7180132146770501
0.8113200350414748
-0.1779750063556704
-0.6333450287834367
0.8740317500963698
-1.044165507496355
0.1701337574508038
-0.2853973235742424
-0.09798991538539099
0.3833872393852952
-0.03649440287215124
0.5489546335516233
-0.5124602307763799
-0.5070133459464264
0.8267659537704913
-0.3197526077448515
-0.4028051317834913
1.045758211817128
-0.1717264606092238
0.3921409007418578
0.05033025368177462
-0.4424711559776527
1.045936440515488
-0.0001782276379721262
0.4441577064138124
-0.05201681081537498
1.056455026002126
-0.01051858793573373
0.5804343590108372
-0.7701827663923977
-0.7240830063655642
0.5565844742753105
0.1674985319952301
0.2141216309848349
-0.7211349836101607
0.5499401631506612
-0.9225714929128016
0.3726313288479289
-1.094218267999109
0.6866191496274698
0.4075991184869656
-0.5955948040568603
0.559100408951671
0.01723186937829416
-0.2557968937010116
0.2385650232954312
-0.02248288442896414
-0.5237176837468972
0.546200567766481
0.4003497939195159
-0.498339702391175
-0.9189653267374926
0.9416834194290806
-0.02271809265759503
1.067742382241774
-0.01128735748749331
0.9348712812087226
-1.116680340941631
0.1818090596440776
1.067197772351976
0.0005446064851537871
-0.6643953426563827
-0.05968766062392786
1.262211208521825
-0.8643278995332199
-0.397883308996566
0.1482324418985005
-0.1099777135726144
-0.3256331284364129
0.4356108423798367
-0.2854987847112406
0.1919253786641162
0.09357340653919533
-0.5836852738253396
-0.515549788973837
1.014083041142028
-0.07921176022565909
0.009875606769707432
0.8255009148567395
-0.8353765215703883
0.5717265974849478
0.6904846140138343
0.4389769257298763
-0.03093226865951458
0.4312820626155468
-0.8080723257800946
-0.1025328347345108
0.910605160415217
0.5020879974522231
0.2540219356188459
-0.756109933074989
0.006685052976670149
0.5293952527881854
-0.5360803064859689
-0.4900070770670766
-0.6042111909749996
-0.4227542464603747
-0.6939260938397148
-0.02724066502243553
0.2706912587224919
-0.2434505926814336
-0.9247707545202102
-0.005104554750457778
0.9298753093369898
0.3085667427219815
0.07482050411079186
0.761572308536181
0.04974772292151999
-0.5329846863945288
-0.0626101152425378
0.0459942444085113
-0.8540665699086055
0.07613836717489375
0.8631496380114927
-0.939288005157894
-0.3468354162999475
-0.04087147258789509
0.387706889109441
-0.682064069072629
-0.2427066803751756
-0.6344111184247766
0.7105494844419268
0.6144300284173512
0.212335919238471
-0.5433924910984417
0.9456545833163872
-0.7789352687225588
-0.1667193145422956
0.01057127046075406
-0.007650118019866418
-0.002921152691513679
-0.4034908758190628
-0.09484882649685501
-0.2411140778616687
0.855544101337231
0.04831190976622841
0.3342630088627124
-0.3825749181029054
-0.4614732757754816
0.96356126953187
0.6804613003228724
-0.7829941349312641
0.3195438920746771
-0.01576240885370136
-0.3037814829630231
0.9307257670778815
-0.9307257670576156
-0.7812258937091503
0.1110768771675599
-0.3234828162353129
-0.7499272917332168
0.7598029015253103
-0.0906711140726105
-0.1433264376621112
0.2339975525350526
0.8648947737995557
-0.03939385449343341
1.054474492038
-0.8004525622418317
0.1867276881770323
-0.3163225118321842
0.1295948233926247
0.8584706881832358
-0.09689838045465855
-0.6113844725897081
-0.03909897896008915
0.6504834515886653
0.1234276969868398
-0.2304466984086057
0.1070190002396123
0.8055733328849951
-0.9835483420501629
-0.4343262689565688
0.3291441639143237
0.1051821043987373
0.533287112514052
-0.5557699991636149
1.021915801008862
-0.4562066992434427
-0.5657091017435262
0.5991615547930191
-0.7193164260056349
0.06656722034740178
0.6527492060203002
0.10236075137377
0.5695588539299365
0.05529025404608261
-0.624849108144045
0.1947287650858756
-0.08365189092551314
-0.4921687727490311
0.1453333567708661
0.05024393168188142
-0.8864306824684242
0.8361867507060617
-0.4733874215408053
-0.7132055979531187
0.04881025702568709
0.4371616115042877
-0.005879545521337983
0.3000323162677421
-0.855281204607315
0.5552488881603389
0.4157578378977155
0.5842421620163901
0.5605267895276062
-0.5145325484246207
-0.367855811013543
0.03938495699804041
0.3284708574341304
0.6812709373857336
0.2494548303845378
-0.5669440423312913
0.5736290958295267
0.1115284857449849
0.8749760815956539
0.01020344499563128
-0.6215879144142141
-0.7490644245917194
0.7993083564387318
0.5304598819334158
0.0700765274741096
0.3012267813522249
-0.3713033090831249
-0.1674474195010149
0.444979659930301
0.0844156075429448
0.8745284453131389
-0.8050635079363785
-0.06946493745441533
0.6353360564593302
0.3103185292728321
-0.4307315402797668
0.5737036587380023
-0.5036271303826118
0.417094401439927
0.1328457612308113
-0.04672800864016546
-0.5930621402062687
-0.1387768314639707
0.7318389716804444
-0.1497551478057473
-0.7809706158418344
-0.6110116579458601
0.3602522064405216
0.2507594527182465
0.6219256105900576
-0.6117221654869539
0.2391426437153284
1.011502335987957
0.04297215561505037
-0.7490644258514183
0.2314323847649799
-0.2208611125288548
0.6804612995735736
0.8017598498658863
-0.8017598497876915
0.8376204280122628
-0.8330845987615356
-0.004535829331892567
-0.4453472421124589
0.8611050829280782
-0.1472882145615391
-0.3448805546522827
0.734755565959999
-0.668554832439807
-0.06620073344830146
-0.7360941371503312
0.1430319985343252
0.1390799159634612
-0.6720646025790339
0.7829941386188651
-0.9504415580592105
-0.3685673116359124
0.2887584355668555
0.07980887847104974
0.1457513846925441
-1.01010962450398
0.8643582397813672
0.4810391086265963
-0.04206218280839707
-0.3080814174271265
0.5862830379636131
-0.2782016206844974
-0.7386105038110304
0.8843618911245293
-0.157009655255379
0.7311804241013881
-0.8408695509760932
0.1096891268917451
0.976414779825774
-0.5391415058013409
-0.4372732739379819
0.7550318396630673
-0.06500343595853687
-0.03336138109172414
0.1845831139227381
-0.1512217322880151
-0.7758157143515335
-0.8396327730163063
0.07351202711907624
-0.7499272903422111
0.5137029073330318
-0.5545743755024162
0.1004997002526052
0.7170829335811251
-0.8175826339894402
0.7536002621637196
0.1743066834613372
0.5029275384364199
0.4970724615872102
-0.05289416752103882
-0.6123913643309342
0.6652855312420533
0.8821756792058461
-0.007647237317920393
-0.7550318396817357
0.7993083550911498
0.1916056747614054
-0.4474025697426511
0.01336546182401328
0.003825745649377474
-0.01719121139099145
0.588716333581666
-0.4374027957645267
-0.1513135383524694
0.7180132082732208
0.01012025517227856
-0.1084523495898452
0.4382598376587007
0.1504564964006537
-0.0163799134653217
-0.006895991545738549
0.0232759051147618
-0.03099487445462695
-0.002366503080393048
0.2457356791167215
-0.2614980999478362
-0.9587695049758446
0.001392716471003084
-0.1594611498737245
-0.1228316279040365
0.09449879573194031
0.722447185575857
0.7289609641865608
-0.1447188024166439
0.6746939698292512
-0.5741942663535805
-0.2118484457887474
0.3985761363200221
0.6956383457581587
0.02237486254292037
0.2418327377749638
-1.074917339398271
-0.9504415588380531
0.3026871950236599
0.7598029043327754
-0.2092750084591708
0.06594856846303955
-0.7238399013255686
0.9109758947163998
-0.1871359933901276
0.415567469443361
-0.02786057244190902
0.771183313639152
0.2806835725939211
0.3764261945606764
0.06773152417135465
-0.6587101837680033
0.6587101837886957
0.214706571876208
0.6958985876241349
-0.05645910184256792
0.3907221077430418
0.3791517392197565
-0.01437619567328577
0.02774167265882139
0.4483368690221994
0.03270224336826427
-0.7386105025490027
0.5339829789178445
0.2007725863187533
0.300349456614475
-0.1157663429660559
-0.6956383452432889
0.1798072649496441
0.7311686296623447
-0.01019831772732922
-0.8136328140526887
0.8238311317925491
0.6964071599596985
-0.791977569934862
0.09557040990860032
-0.7536002579734602
-0.1504554230303774
0.2119016270223289
-0.06144620311629857
0.07742850549402253
-0.178576375126477
-0.1125151478781597
0.291091521812923
-0.00800341933001086
-0.008376483128977359
0.7063132138467816
-0.7165115231549517
0.8869909519305315
0.06887822011461284
-0.311232195744278
-0.5232188489617832
0.8344510448469046
0.1033210289465311
-0.1033210318669078
0.3281433882591276
0.476825953387142
0.610215412505847
-1.087041365949556
-0.1940938002239702
-0.5855326713711405
0.7796264715754189
0.0128056098630958
0.2211919367839716
0.3762665561761606
-0.2528388709046394
1.015884570380045
-0.5390586204406626
0.6684081075552321
0.9923555291261089
-0.3821401200404574
0.2289783465029194
0.8843618936569656
0.7126354325803489
0.2138902421005972
0.7277931744770773
-0.7809706151091593
0.3412898118192896
-0.2847423923004231
0.2605325132691231
0.0242098809580958
0.8508352987380402
-0.005208189034707797
-0.8456271099646578
-0.7021168417940149
0.7026614463394979
0.5546527582759201
-0.7021168427619785
-0.7126354325686581
0.7026614452359261
-0.03365693601588945
0.9078954964839308
-0.02090454069578629
-0.6812709486748829
0.6122363087063307
0.06903463997817313
0.538595973533501
0.5384439042072302
-1.077039877761393
0.4873189977472436
0.5285655716915557
0.5483737562581207
0.4575681483328816
-1.005941904651427
0.4930049465165479
0.4993505813280015
0.6122363165149587
-0.5256891220133314
-0.4666886904075412
-0.5560576487567013
-0.5138483295514319
-0.1237866113317531
-0.01283054064630865
0.01283054156635772
0.5097260917792921
0.5245781836141067
-1.038426513284475
0.572097135910382
-0.2708703531668909
-0.8829616399749637
0.3438201350088188
-0.6327707923196833
0.3900641134748845
1.824279288095016e-06
-0.826277307211927
0.8262754830139196
0.4208795572907337
-0.02513886800278476
0.8759741676036005
-0.9456433184797622
-0.8338440592240253
0.05648417564405995
0.7773598837005946
0.5547294195718739
-0.4378355031516429
-0.1168939164673372
0.6502018436662631
-0.7294136032039794
0.8865812903655269
-0.8268017997779642
-0.05977949032671014
-0.01467610456185928
-0.7903874065175563
-0.1112944200328782
0.7139200644383676
-0.602625644421894
-0.9415033911477053
0.9268272866073508
-0.7321792720425745
0.6882415174239954
0.04393775466581133
-0.8016192254207261
0.02808884379947671
0.7735303817312318
0.06191577917355765
0.04140525371361103
0.4328780816050741
0.05906203872556332
-0.8501176086626607
0.7910555698244945
-0.6459592956369975
0.5930651272607181
0.8888894406150352
0.07363874787437583
-0.9625281885159463
0.05504538506315916
-0.05053948834437536
0.3790103417226736
-0.3818736557879121
0.06555114310446358
0.8404953899968486
-0.8404935678014851
-0.7327409982157709
-0.813561244961334
0.02317383835846986
-0.1674117003238304
-0.8478896247917008
0.02108781974023199
0.6224901449776771
0.05220382711383426
0.01967470456144656
0.535054709380287
-0.8158857823426837
0.8439746305473476
0.5657091023497759
-0.8514161774901075
-0.867864640861095
0.04003086027918571
-0.0290125476428603
0.8338819558216024
-0.804869408125626
-0.02161414675957689
-0.7617535436378378
0.5442816789163231
0.1521254884196956
-0.01799617581893848
0.8939703430240241
0.9833114642036181
0.8614049750070021
-0.8403171572716133
0.1478078020671654
-0.1478078036399191
-0.1175101573655911
-0.4641885859758565
0.02635307977789079
0.2710464390119015
0.03164075639461121
0.3865464457885198
0.872356198271597
0.008259278378022063
-0.01626268951777009
0.6585920925684676
0.3414079074482477
0.783611113473087
-0.5836852756585088
-0.7780776974626934
-0.8100775928059812
-0.679943349027663
0.6799433490389226
-0.1682490649477555
-0.1552337458006149
0.6021038908228682
-0.8112880039067037
0.2091841131176418
-0.4940757049758214
-0.5688405154967757
0.2779895110456559
-0.9719156049753914
-0.8986047968006685
0.8388252995043508
-0.8177260297875366
0.84089986938037
0.6484958307805789
0.134359398280031
-0.7828552290836951
-0.7661398396166811
-0.1464537015829285
0.7253333315657597
-0.5788796300303612
0.02624860124161924
-0.01186019468509745
0.01546656878426546
-0.003606373012907188
-0.3522600983550339
-0.1119284828883541
0.8800934054649164
0.7417064307769196
-0.2402070180714312
-0.501499413338317
0.6248125207536678
0.6857768379702461
-0.4710702664079472
-1.782155940246392e-05
-0.2854809629503061
0.01148065640635555
0.7494549623364369
-0.7609356185021646
-0.3234197706791311
-0.07233019936582902
0.07630011206397062
-0.9678263596741233
0.1221992515224965
-0.6769286003370197
0.05438167349148216
0.639777338056051
-0.6941590115806074
-0.7562461493352783
0.07931754900414598
0.5893192724640338
-0.6616494717594035
0.1567799707325615
-0.3353563451566339
-0.7721753248289471
0.00603548514475636
0.3710980033685943
0.5997129728700711
-0.02600931093213622
0.01996389859907568
-0.01996389950282415
-0.01972651613286935
-0.05106118768455731
-0.2336811960396817
0.0242977294998776
-0.01603848006532487
-0.7199714997579983
0.2793621009434856
0.6788651463130806
-0.6895250537441534
0.01065990765530919
-0.595221405773568
0.6496030750443127
0.6546217672057779
-0.06530249110276706
-0.6307151732455567
-0.1255309799756327
-1.050133352078456
0.01118200381881192
0.1366258031236746
-0.7084908434517012
-0.7420095989661748
-0.7639777977939454
0.3660944910722027
-0.4052852473205895
0.4637649911559317
-0.05847974350208286
-0.6681551824375548
-0.04033566095317878
0.5000355582591725
0.7306851303742841
-0.235656944463589
0.1128253172522337
0.961790876909668
0.4465556805767959
0.1321204137300764
-0.5786760943802574
-0.6767966067403084
0.008641426976024148
-0.04446053765605951
0.03260033287034914
0.6371820969395205
-0.7759589275442619
-0.002429066590618981
0.002429066430547434
-0.6003516044453705
0.6497453110729114
-0.04939370674182741
-0.6571219043045948
-0.1137759471798247
-0.6717292714984481
0.05780861282864897
0.6074769140106313
-0.1376498144795608
-0.8181829717247003
-0.5706384241165194
0.5720416841585001
-0.001403260528969466
0.6293035197740967
-0.6186436163768515
0.3224522548548338
0.2135971014577385
-0.536049356308833
-0.1048274991895938
-0.6021707093037666
-0.09198830262036151
-0.1537959183706633
-0.5128298104311922
0.4043125729994924
-0.499161401856962
0.1262136042055895
0.6787466614663115
-0.804960265601561
0.599161554789984
-0.3726399980881165
-0.03264525107899564
0.06515702378379533
-0.5779868377567233
0.5513430566921733
-0.04043769209584313
-0.5109053647455322
-0.3130654304581412
0.3057091043012804
0.007356327055863011
0.4513896055996038
0.1207075312635756
0.05245105985120359
-0.3164921520524926
0.1575139228945747
0.1589782293387074
0.2467399454493368
-0.01530756052720552
-0.2953924211081194
-0.3118969769504916
0.3536633530850776
-0.0417663743743265
0.7906073586608106
-0.6280019406192465
-0.0291199640240836
0.4994127499124776
0.2854613233849303
-0.5256683381086981
0.5774506492652717
-0.5774506492638902
-0.2897762942059567
-0.5864998160136335
-0.2955475836284804
-0.5864998161250383
-0.596433691725614
-0.8384803602037999
0.1699255275412359
-0.60164884830078
0.8211814337705285
-0.003231317121219918
0.1181072802090479
0.4816056941268581
0.09677602418982319
0.1858817037108629
-0.03631352829062411
-0.1495681738871756
-0.02960717365255815
0.5901334499343006
-0.9424790662988924
0.4192602142154923
-0.007026148218078585
0.001268535158691065
0.005757613987111828
-0.6441821200191848
-0.1321138745583643
-0.4670392225970934
0.5991596383869108
-0.5034931274168641
-0.3187902574018804
-0.2591965594783694
-0.272140729682277
-0.1114696525584728
0.1114696528392473
0.1535620461958835
0.05833958496046169
0.1970637113670486
0.4484574210740345
-0.569496890580562
0.1024576642462102
0.2535063711459476
0.4664168489876903
0.5335831517902591
0.6455161826353862
0.08381046003351145
0.0008745656751928733
-0.08468502370641084
-0.2771248233076082
-0.5410581485170806
-0.5468139948232299
0.1148432295399892
-0.126672091743408
0.01182886269481366
-0.1056017541120467
-0.3853182453454991
-0.05029477291570362
0.6577717104612523
-0.4994634239906082
-0.1447186959742963
-0.3264403759983734
0.2859732615443598
0.129213322511319
-0.6145299244974277
-0.2045626010597908
-0.2630143637794962
0.001516284070567558
-0.4210339154713466
0.3229309242234104
0.09810299164163702
-0.09183146996429287
0.2917313760828751
-0.8959425666854424
-0.457350570579225
0.6281645341625758
-0.7732454630881069
0.6684179639428171
0.3401826196506911
-0.1249555261261207
0.2241009063705771
-0.09914538113187409
0.03095945533143663
-0.5862003427583028
0.02872017289345912
0.5574801695686102
-0.900610659468277
0.547833084921214
-0.6653432422517128
-0.1036537703713993
0.1094845923554875
-0.1094845954979432
-0.3165099738528202
0.3587236317888913
0.02028670419881353
0.02308722576037639
0.06072322166714718
0.5044505719647187
0.6677811573637986
-0.7372460970968819
0.0269129625970242
0.01974975524554537
0.0002141358051958794
-0.006537917681052231
0.006537918392749025
-0.4101068466707398
0.5308143771566108
0.01577150798201984
-0.01577150783881013
-0.7926746139939643
-0.06046909520099669
0.1223848665639772
-0.452855313574069
0.5553129766762376
0.4506328166735648
-0.5000265181656903
0.1502364089273888
-0.1502364100012656
0.04062693257338866
-0.01288525359619536
-0.04182241573509862
-0.9756642265766999
0.538390954468678
-0.4685865957254537
0.04140525313215146
0.5152082968762861
0.03047992568343629
-0.5456882228224117
-0.6164567991947519
0.1169933767922678
-0.3291175270726212
0.0136002697348006
0.3155172566170545
-0.1550783309071539
-0.0805786253379019
-0.5410082672786199
-0.04519206704636104
0.1366258054144715
-0.04075581028435511
0.03832674037985988
0.08111573578100788
-0.08111573206366619
-0.526416501518422
0.4846501169326318
-0.4148961459705792
0.1612951874538639
0.6223159260743878
-0.09707039962871022
-0.004497316610451636
0.004497316387796209
0.532984067280954
-0.07947521169940398
0.006163558802357681
0.02714121382759708
0.03486735100408363
0.6883693126504935
-0.7678445245646247
-0.6591239906402732
0.6300040296460258
-0.1098629314671401
0.3139631448924548
0.7455300010133581
-0.01972651472798619
-0.2652764202019133
0.1495100881120941
-0.7445981595423763
0.4837641405752254
-0.4266082743219184
-0.1012484900973913
0.003273415413685898
-0.01454623738203689
0.02517232098078813
0.4118539854303648
-0.1215726271910283
-0.3893327370882412
0.6290241111645916
0.01936844184727669
0.009026075041097259
-0.009026074795013075
-0.3523532775202055
-0.07795907235914636
-0.5602808431407237
0.5570495257957269
-0.237470666019335
0.4647104218631043
-0.1506798105320491
0.7311141733159575
0.6694509945628501
-0.04075581147152999
-0.6173382297711542
0.5609986452106624
0.2820866017045461
-0.2770444697072204
-0.005042130671949306
0.5381725640688576
0.09344353148360827
-0.03883078927258931
0.1962089794809899
-0.1573781896195787
0.1199465376834208
-0.1199465347106932
-0.8586168080897743
0.002428598870787729
-0.1134118186569884
0.1405530310783962
-0.1315096349255172
0.1315096354575926
0.0197497658261761
-0.02422383829240303
0.6703598113781598
0.06080881931420354
-0.3226398513501192
-0.06267839338459022
-0.4712920136465717
-0.04435377495189197
-0.1512886928863463
0.1512886938612935
-0.04405808189550289
0.1436847408620258
-0.1436847415968059
0.1363082671066379
-0.1363082651184317
-0.3161922679448679
-0.1145392722459807
0.2259826238202761
0.1031615403919727
0.03478566893548155
-0.8212367053632283
-0.1981189149810038
0.1698963849634472
0.02170928470342259
-0.2642539298301421
0.1262224179187711
-0.1262224185567768
-0.4143382202736572
-0.08482317929940045
0.2357195239588416
0.00284549646370945
0.04035993179719353
-0.5446560876228077
0.5783130236536327
-0.03323695209083847
-0.0108211273974836
-0.02464351540156691
0.01175825343117508
0.006551647200684423
-0.1847667838185801
0.1782151367448415
-0.1080540752812201
-0.2273022677602661
-0.1443732170238951
0.1443732177820415
0.07240517964214209
-0.07240517935226616
-0.0189505764893294
-0.1085578121910693
0.1275083880448669
0.2339564644504859
-0.183470603710507
-0.02330658448430168
0.02352070865120676
-0.1287777758659058
0.6134278922486054
-0.03906447720514238
0.4265352121950831
-0.04191485678347382
0.06519075215579419
-0.1530630511274086
0.1530630525145497
-0.6366230566739938
0.3081038739597375
-0.07912552757206057
-0.234101589488661
0.003654889176221433
-0.1214755471842262
0.1618354800466601
0.1948580673986954
0.09623345236349193
0.09580601274234841
-0.0609386620950477
0.07318958301725985
0.04165364584202084
0.06418407353569744
0.1057123166439468
-0.1001728374568432
0.2129981717844865
0.01145514610196586
-0.1162113068227156
-0.1010168296459725
0.09616379913502403
0.004853029585930191
0.01072368813293394
-0.02254642222007503
0.03733596157415969
-0.03733596154276538
0.07473343456124773
-0.05536408908948824
0.05536408938658007
-0.2243597298182761
-0.05102055153796434
0.01179196322562743
-0.1031349018467728
0.01636174055935804
0.1088465933408807
-0.1088465937751833
0.2929610614563263
-0.2707913051340862
0.1627372274144672
-0.05067549494799209
-0.2201158096726509
-0.0168230760977714
0.01682307584603247
0.3675823072009962
0.2851668954832177
-0.5280407143459123
-0.09392513467627772
-0.03274695756315339
0.5288774919025341
0.2093129334735563
-0.1690429692352298
-0.3807332963954259
0.07658327422949184
-0.1471768355318694
0.1867836698925637
-0.03960683417032368
-0.06719295869806803
0.06719295846838355
0.8221132752478272
-0.5603229453256416
-0.003963004232413183
0.01468669369258192
-0.02003998107744048
-0.28734762017309
-0.01746232700665012
-0.01286358182862088
-0.1321703456496469
-0.5723187552751033
0.5561151950950423
-0.5686920643342324
-0.006915478507062844
0.09913312422453106
-0.001774355240645887
0.01675478074123202
-0.1672168176657226
-0.3361339109526982
0.2329990090492324
-0.05401979876952666
0.035069221089968
0.1322220716819474
0.1734870337349563
0.3421926718227633
0.275904121063309
-0.277678476695282
-0.06269009387451578
-0.1551255432473258
-0.2205013244822792
0.07453267585751482
-0.01034860042817878
0.2135333656510009
-0.1967785853823157
-0.08624191910406906
0.1594315067815401
-0.3550949606047639
0.2080536782316436
-0.1916919378373638
0.08964083338433401
-0.4789735653767109
0.1739200879697854
0.1707365526497333
-0.256978476088088
0.07325958657403617
-0.1948727775607017
0.1774104510314864
0.01737581743714936
0.1420556891416897
-0.03959256945907354
0.06575052036997471
0.4672335474476982
0.02051288017277887
-0.08429817469009394
0.0550579322700834
0.1260067884072698
-0.2601081612560062
-0.2309517985533106
0.5597246076979296
0.1569466159506525
0.0787729094994597
0.07477124402033973
-0.03107556708591818
-0.002205677306938887
-0.002836441038041854
-0.03259458135479189
0.170659486672869
-0.1775749656270459
-0.059125856731818
0.01955771364178163
-0.1471395729022958
-0.05281709330954402
0.153872304173941
0.277047278574408
-0.04055067694831548
0.009552579651084542
-0.2551628496619565
-0.1315991747102599
0.2362876963532607
0.1785576666558631
0.12954620538659
0.02184141992675035
0.08844390883590651
0.05228521307305611
0.4521653589380663
0.01630817892289832
0.09800024282438756
0.04294317879803639
0.07233952350868425
-0.1152827012165965
-0.2428738157722095
-0.2003990935357989
-0.01971672074246304
-0.201926283261324
0.2748795638570726
)
;

boundaryField
{
    FrontBack
    {
        type            empty;
    }
    Top
    {
        type            calculated;
        value           uniform 0;
    }
    In
    {
        type            calculated;
        value           uniform -1;
    }
    Bottom
    {
        type            calculated;
        value           uniform 0;
    }
    Out
    {
        type            calculated;
        value           nonuniform List<scalar> 10(1.035692754830042 1.064285095561218 1.022746339161963 1.021570519515794 0.9960120520977896 1.013198911019239 1.034304276089225 1.062916220482019 0.8672269482145011 0.8820473996526749);
    }
    circle
    {
        type            calculated;
        value           uniform 0;
    }
}


// ************************************************************************* //
