/*--------------------------------*- C++ -*----------------------------------*\
| =========                 |                                                 |
| \\      /  F ield         | OpenFOAM: The Open Source CFD Toolbox           |
|  \\    /   O peration     | Version:  2412                                  |
|   \\  /    A nd           | Website:  www.openfoam.com                      |
|    \\/     M anipulation  |                                                 |
\*---------------------------------------------------------------------------*/
FoamFile
{
    version     2.0;
    format      ascii;
    arch        "LSB;label=32;scalar=64";
    class       volScalarField;
    location    "1325.5";
    object      p;
}
// * * * * * * * * * * * * * * * * * * * * * * * * * * * * * * * * * * * * * //

dimensions      [0 2 -2 0 0 0 0];

internalField   nonuniform List<scalar> 
808
(
-0.03591532293096462
0.04503058101723616
-0.01183100577672579
0.03501819444611483
-0.3040229271812243
-0.05467377647531911
-0.01458366531713428
-0.02392338879680399
-0.2002610797794752
-0.08568584164079322
-0.009529846814563746
-0.2579452438836359
-0.03059301591972826
-0.01297722658360583
-0.1214470343361535
-0.01402836358009641
-0.1399907648787179
-0.01357519363842352
-0.01241536844816957
-0.05696854731375934
-0.005886863172029584
0.1183645117418517
-0.06079997113488821
-0.0734375376549639
0.1765667237394116
-0.09937661867108785
-0.1553755164909004
-0.02030509657915254
-0.01737321343411893
-0.02598174808502755
-0.02016839721176081
-0.05988682376143206
-0.02293496042298666
-0.01683384328589597
-0.1011678019238762
0.3440417777648708
-0.03857364542091044
-0.01676922338826888
-0.02324992448512738
-0.02656344039403585
-0.09194070105034581
-0.1291105994662409
-0.05075241870432962
-0.02067629689006256
-0.05480463327474083
-0.03983067264260727
-0.01232997305527088
-0.1877254452131862
-0.02754920552844988
-0.207592638450749
-0.01615460430427641
-0.06900241078890493
-0.05945895279465614
-0.01470966073917251
-0.1901771237553501
-0.02894481489510372
-0.01062018711306418
-0.01422188083957111
-0.1024620228144232
-0.04066244366063193
-0.09664884567751995
-0.1287160707328116
-0.01339841690619836
-0.1304120650732259
-0.01698507072948187
-0.05056661336234528
-0.167353682299142
-0.03565639231579798
-0.01489411781384581
-0.4464517396423026
-0.02695837184406727
-0.3083269730839862
-0.02198357907331974
-0.02040378443300927
-0.06742208822693543
-0.01738859138696945
-0.04351682411126777
-0.3590444062130162
-0.03549106515281868
0.04213077542366912
-0.09042353806537946
-0.01726411917073765
0.05682989124034868
0.0434405685023244
-0.01658977733277749
-0.05327928766695262
-0.5494064775955434
-0.2226304475774689
-0.05342962211035734
-0.1114683486278746
-0.05804608906841312
-0.1350447921909078
0.04080736556731629
-0.0237539980353474
-0.06050279792618419
-0.1197496219323863
-0.03849172844897111
-0.05205857657707982
-0.1182612879067493
-0.1403109962398315
-0.0521282850938024
-0.04840716005787448
-0.05564246536749094
-0.0457686137421824
-0.05788817430598173
-0.0731873268675914
-0.04149494466959232
-0.0112457011756952
-0.04106924902688142
-0.1268273011180089
-0.05124343608225517
0.08342344766065922
-0.04311923001176159
-0.007996985671252232
-0.02782060005139856
0.1801348237274184
-0.03985772845426953
-0.2738477259923586
-0.02033489570065697
-0.05488331979035709
-0.02693804695940533
-0.04781746352199219
0.01260967478096416
-0.05011996706393608
-0.03395481105391503
-0.2139905544161191
-0.04294193271830905
-0.004985772988863792
-0.07779537851829338
-0.06750008613547098
-0.1474673211807027
-0.02095871152918252
-0.07656810796524946
-0.04104777977504248
-0.02276011038023804
-0.01659569883997928
-0.006392105116215479
-0.007371696916333238
-0.05313738617180926
-0.05097549419048729
-0.2091517095021291
-0.05815132619023874
-0.008558673912574208
-0.02274640064024227
-0.1446826631036782
-0.002306575897716147
-0.07782001412843792
-0.02377561711549242
-0.001362338591694215
-0.01042638769000525
-0.03387911659934248
0.09564923178476398
-0.03980947552068994
0.2527901030261245
-0.2650000729343776
-0.1302075899448154
-0.03716923988000166
-0.09129438933496689
-0.009155232098551099
-0.1116611851548773
-0.1862130366044973
-0.2142631730705203
-0.1832328619736347
0.05538851258924146
-0.06179147789270446
-0.02032072996121367
-0.0679456878610331
-0.1723911494974951
-0.02387460266057638
-0.01855390804520892
-0.05334935557613284
-0.01795971145898183
-0.005873398637532124
-0.1106050079657062
-0.02280562004150001
-0.046696872902136
-0.06872815768242402
-0.1640146716980839
-0.03370637502826598
-0.3965811371811476
-0.01782714128615689
-0.2222468374869463
-0.04546949503783657
0.03051848913178595
-0.1051718386220955
-0.01411099468793076
-0.04157209556423899
-0.1057917908260408
-0.01772836929839295
-0.09707052057488363
-0.2051961304027985
-0.07300192685775274
-0.02373885427542108
-0.04991708689910718
-0.04384885826366371
-0.2041318053947126
-0.02187792026240687
-0.01897327686974644
-0.01136794000832951
-0.05452725172837875
-0.0520857877113152
-0.02243685241164507
-0.02082768387823163
-0.2480019036973989
0.1280755741369101
-0.2002794561467364
-0.2083727016078041
-0.0117780768190447
-0.01161208010587797
-0.06767848179753704
-0.0094885475883013
-0.515219910974507
-0.1227037568129159
-0.01898192496465205
-0.001320831575595909
-0.02426273837032168
-0.287507862890962
-0.2735902470436068
-0.00709562415420416
-0.01769260704161773
-0.002090573391756282
-0.344049412137347
-0.02828512233703506
-0.02917264038371699
-0.01250300015372214
-0.01975718323066637
0.05107622799065006
-0.1084853976025045
-0.01379909630867323
-0.02074059183124083
-0.04287903113285903
-0.01820553084290852
-0.01614743588048047
-0.0233691003501592
-0.06686866209514129
-0.01186735571353989
-0.01906578507718877
-0.008524772501644988
-0.0008326544375605922
-0.02955109848891656
-0.001549860209297607
-0.0023028895201833
-0.006093698302263584
-0.02561542874182014
-0.008006434915674054
0.001572006770121705
-0.004163361422587942
0.001154453267533583
0.002518366888560232
-0.008507953723586351
-0.1424369627703057
-0.003032281423660451
-0.001283027814106184
-0.04833992399114189
-0.02150294251549684
-0.02486062972685178
-0.01439151218792855
-0.006087287791195573
-0.02088697192542526
-0.03726288895735867
-0.0140025875661223
-0.01280724825204578
-0.01192720486350066
0.006860853481140124
-0.0102412267898942
-0.01201573652182212
-0.01127389499203024
-0.01072592174824896
-0.01006053930232149
-0.01146251543207671
-0.01413999444604143
-0.3114438136687374
0.06114503478134042
-0.01542003494322215
-0.01674275491092105
-0.01305974636257752
-0.01235660039929961
-0.008747417580279308
-0.09789278820105347
0.00904823080129649
-0.01377076294411266
-0.01476381740404186
-0.01081245967093637
-0.05335068038172963
-0.009932550655427117
-0.01386579921839657
-0.009250838859593109
-0.00065831942079095
-0.009728605141970997
-0.01101979044089754
-0.02486697425422214
-0.01627618584672665
-0.01188022976760389
-0.01332392740865604
-0.007884298000911521
-0.01287393152301126
-0.01160374684456417
-0.05713319933678672
-0.01294738235576392
-0.01136923837217698
-0.008658879494066282
-0.0148706208410677
-0.01397587198676575
-0.0157425471977588
-1.38058215255613
-0.09817858191124074
-0.01312983472269309
0.02344640681211721
-0.1658368500655647
-0.09283734640724715
-0.01136036492373702
-0.01407132135300544
-0.2554289525431586
-0.03091032013433899
-0.020561790551596
-0.01091369332439892
-0.01968621293237155
-0.01099533456656895
-0.03069377177278262
-0.4162650535324541
-0.01226956398272582
-0.01410044153710077
-0.004869949072382846
-0.01059839382102516
-0.009684730181445569
-0.01431511646085741
-0.009133052049619507
-0.02614845628135041
-0.01127903828717623
-0.1612031282487277
0.01763008025720997
-0.00773268656033979
0.003239342452625985
0.01338191675430776
-0.0472407911444899
0.03004059207213409
-0.01289349989070255
-0.1359054643645295
0.2819783037464685
-0.007277025974364156
-0.01317522249402301
-0.008403749926586858
-0.03321123092991009
-0.1221326003890542
-0.01297345525651055
-0.01234813313513597
-0.0170080511454164
-0.01356705132433205
-0.04099573908539477
-0.2135012248356801
-0.01154674392633377
-0.04103458340642205
-0.03991623955332776
-0.1647729221564929
-0.1657693619638105
-0.1410975574754932
-0.2562512496622003
-0.007306020596145745
-0.02127018024853052
-0.01436833619257554
-0.01277696454277158
-0.03286659341564539
-0.02439364046505586
-0.01444491819973249
-0.01503277787863748
-1.083723512278499
-0.005634244625698908
-0.01362641203044934
-0.01846767665636751
-0.01961741659466433
0.001969489035070301
-0.01412812849200243
-0.02794306706349413
-0.1645514901057357
-0.01361029883999298
-0.02211612515996639
-0.01383261086262942
0.001264482092896222
-0.1795277678604579
-0.01328906527695182
-0.1414846663921443
-0.01599382086794275
0.008704841823869332
-0.01459711608542352
-0.02309361323654853
-0.01570478601025796
0.004709011701409938
-0.2793992109925408
-0.02549000959096805
-0.01605675757627605
-0.004804070204565049
-0.009380212494638987
-0.03057046099311586
-0.0143436430114488
-0.02043900384103015
-0.0213161055640451
0.01223965479414694
-0.1013072357197418
-0.02210954476829635
0.009203409726799037
-0.05045579482522577
0.1570370684368975
-0.1025319866782774
-0.3222031127805846
-0.0305188864131412
-0.02546005921592934
0.1489085373680876
0.08455964633718599
-0.003278298500502972
0.04985180076151563
-0.01560479413667326
-0.01472980405649481
0.002239438082930524
0.01200573326613459
-0.06722271075102731
-0.005561359025005602
-0.05770298100783366
-0.02223577539344079
-0.01571516702522252
-0.03652865043874737
-0.03291709598457278
-0.006641021105760104
-0.0150157569762937
-0.03942621212002252
0.03746695918996209
-0.03888251088440514
-0.01355802843833343
-0.1159030576848934
-0.03195973462742732
-0.03844138981830369
-0.6789305323769234
0.01863863681089037
-0.01090578894865115
-0.005338160148447643
0.1599393596484576
-0.08338303171448094
-0.03495732841459725
-0.2477636074084932
-0.0165613481795443
-0.0165941584553386
0.06107814000516837
-0.1854485412760173
-0.2267279518430314
-0.199019263477426
-0.688118783759172
0.005032655512245617
-0.01754271818656644
-0.01655844788849757
-0.07800057831400639
0.1176394352842325
-0.02120326675645443
-0.2457290671577058
-0.03490539741283417
-0.006465298657135564
0.2769704443735679
-0.01130605538297708
-0.09411447953064953
-0.1483919340780096
-0.004839776253921434
-0.04035354533195032
-0.04782965984852296
-0.2068603212809199
-0.008842940029397952
-0.04237976171097301
-0.002467533694035465
-0.5523476936457206
-0.200761118285624
-0.175209418888267
-0.02271339023044085
-0.006850017089481609
-0.05972095659744218
-0.05838737948458163
-0.0148865029758983
-0.06730584737964258
0.002713763421892274
-0.01836206997393421
-0.09502765891210499
-0.2659627347926722
-0.007634628641497173
-0.02628973762519326
-0.02208217527325443
-0.07397442004134838
-0.09137372391555969
-0.08754951494527304
-0.01166998465007501
-0.929461998032598
0.1605114513558469
-0.07935412023144982
-0.2579964457443202
-0.04264668900185851
-0.01048471075158456
-0.2517476849430169
-0.1827241051458323
-0.03347099378041875
-0.1279232595161705
-0.01884298301322779
0.5626757244240215
-0.02379816906323809
-0.2301697038638895
-0.02620528687425531
-0.005347100239751169
-0.01184803774377725
-1.255712229978817
-0.1836912357220605
-0.2346693822031733
0.005414379281215327
-0.03682359294300624
-0.253783756013811
-0.06521492265446646
-0.05084893565505767
-0.1413784924013951
-0.1925645469717149
-0.0675295969471451
-1.232388642551538
-0.1426128750416187
-0.5174398517839776
0.07858961381868802
-0.006995054959834887
-0.02198728415353999
-0.04232067889737996
-0.04094617146956236
-0.02879953892814751
-0.1318161591954644
0.07965027916049648
-0.002698119740798155
-0.009734316378504349
-0.5824247063525504
-0.8663655036438199
-0.1870792981812556
-0.008108759922997488
-0.1381824944738133
0.001200818311482915
-0.0007660463821357497
-0.001956451669125151
-0.05978570639121328
-0.2398374203620574
-0.01341513766589428
-0.124834365276628
-0.1550204019862136
-0.01323572514016794
-0.03598470884025705
0.02142030608105969
-0.05713250009668006
-0.06940263670619032
-0.5046630112648982
-0.2415934609385224
-0.0810748587242015
-0.07211212079916871
-0.01992516042769844
-0.1236378309027578
-0.1522852271699959
-0.07456803462241855
0.02400358764557164
-0.08401280303761036
-0.0477498581549152
-0.01490221413307091
-0.1069681417738652
-0.271153808435583
-0.05640425675792994
-0.01851313458858202
0.0006051199800282157
-0.009995392759328137
-0.01114956062919977
-0.2161852529406518
-0.01515025823334988
-0.2232117417768448
-0.01034810356981005
-0.06577960052762888
-0.003798400958037543
-0.02319601571834908
-0.3759366481137628
-0.9059700633821404
-0.01133763005154061
-1.0512555100554
-0.6156167473396658
-0.01067377242508483
-0.6543870497001637
-0.1751493009373806
-0.00580417191261212
-0.1312977536861337
-0.017023623210174
-0.1211363691337329
-0.06771106165964241
-0.07634044492939308
-0.005066492574314642
-0.002610252095540659
-1.334510964425996
-0.01111848799757084
-0.1848360083195379
0.0005278163623615364
-1.014236897485878
-1.229983732289893
-0.08205343279166341
0.02018601241048653
0.1643014949419001
-0.004686706654465727
-0.02303798457445215
-0.004213553001969522
-0.2541429069701427
0.366247242129189
-0.04073317319226701
-0.2098302149034696
-0.0149119225142209
-0.6576589010155457
-0.0754809340861101
0.1914554985306007
-0.2824909153416432
-0.04968990457945866
-0.06854230791176369
-0.01591146123533396
-0.02174145989879099
-0.5726926940309177
-0.1438032229440699
-0.08527771458641266
-0.1288501944466826
-0.5577272456067196
-0.04404119400145161
-0.910339671299908
-6.160271468629713e-06
-0.2367441016486463
-1.046234039963176
0.1690223791132464
0.2923506934245334
-0.1838100801002413
-0.1939015091058357
-0.2064293631656977
-0.06834665625415459
0.02287846458398269
0.04960825902514254
0.004045449022041881
-0.1671608269689119
0.02566538238880379
-1.352664578847933
-0.0848139163770299
-0.4716395863717803
-0.3288879232558186
-0.202404689672905
-0.175334850775626
-0.01691320399867669
-0.01546231448905513
-0.1072475964256232
0.1706148392641418
0.3857906792570247
-0.2175697812370993
-0.1395515443305948
-0.2396713721615658
-0.06230598511995802
-0.1496430241198421
-0.1618340479930937
-0.1251923290426143
-0.123197198756859
0.4667620734962833
-0.2674742056192304
0.4306561958181514
-0.6015214521960845
0.07025057249097753
-0.2055105679509046
-0.06582082806233945
-0.07356757701288516
-0.8752778657910361
-0.2218692123010697
-0.1893780749875813
-0.345129189148281
-0.4558368048983191
0.57072869631173
-0.2055962688486375
-0.000141287853872034
-0.07119087462472823
0.3432913240000457
-0.03791524731336436
-0.1310346988099036
-0.1783954715156372
-0.06344824100315936
-0.01653096641362043
-0.1936990546458088
0.1929696924911331
-0.01281736784945613
-0.09578682532163646
-0.1675975654078032
-0.3134834246155242
-0.3145021603264686
-0.06376029606595045
-0.01029339715859671
-0.07746354950825714
-0.6566981903720961
-0.6676130660368632
-0.3398508638126777
-0.05744635818184324
-0.05230935522058193
-0.02546735150547477
-0.06715298782134123
-0.0582859958658425
-0.3570555098401775
-0.9545889680811749
-0.01019074102148528
-0.08248759599099162
-1.134600099366332
-1.028600613559509
-0.103899698782411
-0.03804279843367124
-0.0703204144307028
0.3909659382954747
-0.3454829370605456
-0.0505415711448144
-0.5963219597515903
-0.1218220038041592
-0.2541364879033438
-0.2091137872907242
0.4743753923867257
-0.625342804670764
0.07273922626954982
-0.02958539910985553
-0.5553440287963493
-0.05099505911090263
-0.3597140631086712
0.1064128597147169
-0.1892854337517199
-0.05952351233091644
-0.1386744618811285
-0.3635793076719171
-0.08891825044212402
0.5141168372647947
0.08506687169349472
0.4712280776366221
-0.1057023458756767
-0.1986028854671468
-0.5241579278983469
-0.1297976119487085
0.02730749470745679
-0.05316496797404683
0.1032843207625542
-0.3086714568631834
0.2362074503620635
0.009097315927630077
-0.003148664893913394
-0.5151818059143158
-0.1864974651332773
-0.0826249521862224
0.5814974791009562
0.1382198605515201
0.3462995233962057
0.2258759544825064
-0.5592876490829962
-0.2050441711002076
-0.2211017353267619
-0.2371823012692495
-0.05994706612904095
-0.6966726156278288
-0.1949080361474778
0.3065063485680116
-0.2033029168555798
-0.01116734184180764
-0.1731461224848876
-0.009053596325206274
-0.1561658640485215
-0.432582036781788
-0.07669453237916553
-0.196990554476822
-0.07109340276895862
-0.08789848752933355
-0.146405613667274
-0.07340530182935755
-0.4568787327580492
-0.4166215580976531
-0.02675359130370488
-0.07381482764727947
0.3266970471194192
-0.2455433783447744
-0.1859135735015597
0.5257633295743385
-0.2089678718437021
0.01734863993504742
-0.4473699200878609
0.0460281650285571
-0.06252893811830192
-0.1490296419008582
-0.5801432303158639
0.1622277751026621
-0.5827163344583143
-0.5318630012984433
-0.1065288042777621
-0.5051000218494029
-0.03743860874254776
-0.1391765095477341
-0.4082342141000918
-0.01632348185450343
0.2862644384254338
0.4894820645584073
-0.1574325495479084
-0.008604620234013875
-0.07274781181867478
0.5253912193139727
-0.03349696619873212
-0.4366526903846535
-0.03280072628083721
0.4603842686652667
-0.01434638641998646
-0.5408414679421445
-0.2458740900815851
0.1755253675202704
-0.3084200984746519
-0.1774874479494224
0.05210983413777545
0.03406401962595375
0.05391137667006415
-0.2972271891841436
-0.1572767880743746
0.4127676894318856
)
;

boundaryField
{
    FrontBack
    {
        type            empty;
    }
    Top
    {
        type            zeroGradient;
    }
    In
    {
        type            zeroGradient;
    }
    Bottom
    {
        type            zeroGradient;
    }
    Out
    {
        type            fixedValue;
        value           uniform 0;
    }
    circle
    {
        type            zeroGradient;
    }
}


// ************************************************************************* //
