/*--------------------------------*- C++ -*----------------------------------*\
| =========                 |                                                 |
| \\      /  F ield         | OpenFOAM: The Open Source CFD Toolbox           |
|  \\    /   O peration     | Version:  2412                                  |
|   \\  /    A nd           | Website:  www.openfoam.com                      |
|    \\/     M anipulation  |                                                 |
\*---------------------------------------------------------------------------*/
FoamFile
{
    version     2.0;
    format      ascii;
    arch        "LSB;label=32;scalar=64";
    class       volScalarField;
    location    "649.5";
    object      p;
}
// * * * * * * * * * * * * * * * * * * * * * * * * * * * * * * * * * * * * * //

dimensions      [0 2 -2 0 0 0 0];

internalField   nonuniform List<scalar> 
808
(
-0.03415610282303579
0.04402479885781739
-0.01111256725077364
0.03679809280459418
-0.2983830329072893
-0.05559688851341317
-0.01551881605392485
-0.02414058728319832
-0.1964220894992475
-0.08377032235437397
-0.01069386446676526
-0.2534752166131516
-0.03069182449028122
-0.01393290795065545
-0.121101603301399
-0.0142070255265515
-0.1375919231110094
-0.01372681836337155
-0.01251014644680721
-0.0554400075698222
-0.007554696440298016
0.1171006718957231
-0.06276753010126329
-0.07150810218321044
0.175060215455739
-0.1003468431472377
-0.1521157850965081
-0.02042974845681519
-0.01752076651549873
-0.02559689599239444
-0.02034146095072279
-0.05825563116584027
-0.02272329723230765
-0.0168904426974553
-0.09949020433948227
0.3444468891088212
-0.03971117132208622
-0.01638711207364729
-0.02265980258090233
-0.02647618163905756
-0.09021632320251967
-0.1264424527253868
-0.0523573506807621
-0.02137979132638545
-0.0542681921428614
-0.0418237401110102
-0.01194462411320833
-0.1841126631371809
-0.02680404224083839
-0.2037337900648714
-0.01712416271116299
-0.06705670403895739
-0.06122971252884049
-0.01442686314213781
-0.1942347484983275
-0.0280719881139878
-0.01056520388416627
-0.01420372604004823
-0.1001468696474284
-0.03949830189281318
-0.1106903865661165
-0.1257117055854224
-0.01431813072721259
-0.1291753852390513
-0.01758716211067205
-0.05213991636642218
-0.1647610834188854
-0.0354181868820885
-0.01524375834052455
-0.4396802683557738
-0.02630220142458759
-0.3006721029476087
-0.02147161643176476
-0.02113065512920493
-0.06472156669472172
-0.01800783252278296
-0.04227400860469974
-0.3635452815221882
-0.03641462419949924
0.0398671418115531
-0.09165521738215887
-0.01685894575686312
0.05719624537328013
0.04503792862340826
-0.01732392472439662
-0.05198319307837636
-0.5407499346353942
-0.2271623766356582
-0.05191806551576098
-0.11298589539897
-0.05637870289435901
-0.1324538187533357
0.03891895698767051
-0.02585135131971568
-0.06232154845166907
-0.1213307276884241
-0.03826006410718223
-0.05195489801687365
-0.1160411497311194
-0.1399825662121066
-0.05300539560790609
-0.04706172641625919
-0.05417208914988358
-0.04453877330714549
-0.05718285706735497
-0.07503510966095676
-0.03984264083279521
-0.01069662615260592
-0.03998767857981175
-0.1237090373043762
-0.05008119005460378
0.08183057799706202
-0.04211837135606242
-0.007556855737127216
-0.0275626398728288
0.1805686929571302
-0.0385518470852972
-0.2677717605488777
-0.02076702356433536
-0.05333952013804637
-0.04017664133658647
-0.04924601331638372
0.01371361727094051
-0.04845716811958509
-0.03604113558045157
-0.2182315555317698
-0.04099192501299715
-0.00427880771665263
-0.07565731891732606
-0.06930464135396137
-0.1521232310506418
-0.02130400095968085
-0.07505740261772122
-0.04338446128509207
-0.02306793299883043
-0.01537222968032701
-0.005994659310700678
-0.007624443392080234
-0.05213308521212709
-0.0494963953444643
-0.2121443315261075
-0.0563205902020143
-0.008240651635514755
-0.02203052080162113
-0.1480853765083349
-0.002046364778343365
-0.07608028835821735
-0.02192075166449721
-0.000241766046624696
-0.01013560375023692
-0.03306329145390947
0.09384110133973825
-0.03846131549383091
0.2518157209857518
-0.2594032334668363
-0.1330990118199452
-0.03795701890584511
-0.09086586679268005
-0.008992046488684317
-0.1140912082746148
-0.1712487004057948
-0.2137115325567571
-0.1806952261768295
0.05654256147427728
-0.06347152120970101
-0.02058827668863444
-0.06664047516941202
-0.173646777404729
-0.02318280331765014
-0.01880580148579834
-0.05172878165038877
-0.02008146176771241
-0.00714672922871459
-0.1076554604509598
-0.02352592847858252
-0.04493711133226359
-0.07059505332308352
-0.1610190700303818
-0.0331520488688101
-0.3871986574354151
-0.01790515700474312
-0.2264408622468214
-0.04403117854917322
0.03217740103022542
-0.1056420164129662
-0.0160622301065806
-0.04303066230425768
-0.1052059525040638
-0.01790081742572739
-0.09599169863544514
-0.2034397832662153
-0.07173609733291807
-0.02415806402172615
-0.0479658824229272
-0.04249007832992455
-0.2012445488831074
-0.02238243893277933
-0.01930624094931524
-0.01129455137863253
-0.05678994302504072
-0.05044839583590784
-0.02269921362710832
-0.02060139335881764
-0.2365241086312365
0.1271257712913603
-0.2056272265412664
-0.1942743943334102
-0.01171341292010995
-0.01135008252505587
-0.06675743214432503
-0.01001927348507669
-0.4968327926316833
-0.1275881690383564
-0.01959288083455431
-0.001153083763810447
-0.02377261190415405
-0.279761920521606
-0.2779602281505221
-0.007533584730045478
-0.01793131983310181
-0.002099483700445942
-0.3488653044836673
-0.02857509275856839
-0.02939466180919122
-0.0126686172925688
-0.01947241498570984
0.04910650892458496
-0.1239939065143651
-0.01408951741747002
-0.02090282810045804
-0.04490922093942788
-0.01837937798631078
-0.01638954281947656
-0.02349715808368968
-0.06776365930478134
-0.01120531063581294
-0.01892186029635696
-0.008921195923785709
-0.001352394133248926
-0.0293421435536453
-0.002008576712850832
-0.002023385773203499
-0.005824887137243689
-0.02550626016032722
-0.008115459866044956
0.001652274936966365
-0.004102874131411157
0.001209242758689013
0.002324513717456421
-0.00869954291598204
-0.1310774077868599
-0.002942646495350418
-0.0001878894083509841
-0.0474107637832409
-0.02137618103771136
-0.02393415109300089
-0.01409334640424266
-0.006177841258847786
-0.02112502985082716
-0.03948812782391566
-0.01501757401433588
-0.01262345948661301
-0.01172298465329794
0.006005496984067146
-0.009690972956109944
-0.01313695409149941
-0.01134261638663977
-0.01013424074126918
-0.01008864937617447
-0.01095681525231692
-0.0136594514445
-0.2950239042969056
0.05940021451118932
-0.01514018806490644
-0.01596960301390312
-0.01247261111097643
-0.01248373832678702
-0.008282782331173062
-0.09959894125502801
0.01131631482938677
-0.01436492543291297
-0.01403672259495865
-0.01066807159978965
-0.05165729485551774
-0.008177803927225164
-0.01395539132731629
-0.009586263172295242
-0.002382963062209509
-0.01093967745116943
-0.01057487114469471
-0.02436891016916745
-0.01578903458473075
-0.01240136789642713
-0.01338433517225965
-0.009830710451466607
-0.01322946212200212
-0.01089302081605652
-0.05929251073063182
-0.01323942831063661
-0.01222182872865336
-0.009087815600927527
-0.01534110739498712
-0.01412579611810101
-0.01571694922322411
-1.371518503833268
-0.1000506301708171
-0.0118700386566234
0.02347372360564829
-0.1630126809864412
-0.09390157745139775
-0.01193264239174791
-0.01424622518495497
-0.2453397204736904
-0.02908192529298305
-0.01866529029129591
-0.01208981154074624
-0.02044463132700694
-0.01097879076221007
-0.03076874023334137
-0.4104760788295848
-0.01199634134546342
-0.01407924839665841
-0.004501898226243918
-0.01060590595424773
-0.009281655141610059
-0.01394928404766635
-0.008707683506558102
-0.0272213406376451
-0.01162347816192695
-0.167719378085541
0.01970507253036936
-0.007449631108830122
0.003688835851707745
0.01197702686146421
-0.04871057543160714
0.02810236519183531
-0.01280075611123453
-0.1340752670515428
0.2824654826942267
-0.008083506521820808
-0.01339000462823484
-0.00803024040025483
-0.03347216831992365
-0.1250277049358274
-0.01336283556121839
-0.01202703221151095
-0.01767358832606883
-0.01352106442559334
-0.04161227565565048
-0.2186148258809081
-0.009817351800179107
-0.04313881250850885
-0.03865928096708712
-0.1765679175983228
-0.1540575262998503
-0.155733759602241
-0.2448968711472737
-0.00362779454551431
-0.0207960336765423
-0.01552382397659241
-0.01389054084285981
-0.0336123768411719
-0.02446996084066253
-0.0140442822646923
-0.01496622118822779
-1.073724615817898
-0.002973452708351698
-0.01349884545203129
-0.01806265993086913
-0.01843013988472286
0.005762852316000853
-0.01407490833002235
-0.02613984585532255
-0.1603982988824468
-0.01359815373313166
-0.02104001720610938
-0.01456695478194735
0.001701408935475877
-0.1780344734695087
-0.01276318285574705
-0.155284460971667
-0.01548806950948686
0.007811323535273635
-0.01400962952730513
-0.02409014491647253
-0.01639830204958261
0.007063833148114784
-0.268763718022189
-0.02656391578683515
-0.01688635623315209
-0.0159463926699632
-0.01072847007157655
-0.02958371839179375
-0.01381252040752875
-0.02112569609242301
-0.02061029427108262
0.008043964554588967
-0.098679630215165
-0.02133901596550807
0.009564877958058748
-0.05568761396487126
0.1740204976488188
-0.1056419176232321
-0.3185632614685008
-0.0293303026815069
-0.02588907377464818
0.1502904536172286
0.09613186412283453
-0.003651413432110967
0.05330601837529359
-0.01527334015868274
-0.01352288895485814
0.002637703692655176
0.00897560967086572
-0.06549165394331183
-0.004383269685795673
-0.05634383357240639
-0.02323509986210064
-0.01567660875700451
-0.03650429567077535
-0.0329351848668485
-0.006689446752820589
-0.01454963807366531
-0.03752661374133118
0.03154536629635005
-0.03866014998240409
-0.01374038537976315
-0.1189316649875417
-0.03098457616841504
-0.0397560795814488
-0.6717432683272371
0.01350865537087258
-0.0108445440461054
-0.005494527306756578
0.1843970658876489
-0.09838146330397374
-0.03587134352132337
-0.2436377406150351
-0.01532683407233279
-0.01614138392297523
0.0728229410286528
-0.1822588449967834
-0.228251536678471
-0.1884917308198563
-0.6795617834505197
0.01171515787891473
-0.01790985382528358
-0.01515347951832486
-0.09398946595045916
0.118295256236036
-0.02202430128696132
-0.2463250789863503
-0.03611378367638715
-0.006879994792028002
0.2778796197044047
-0.01085871631487928
-0.09180728270723196
-0.1519723872386146
-0.004921428295193741
-0.04152275209504027
-0.04544277977171592
-0.197258553942961
-0.008109532358181354
-0.04054919375376664
-0.00361060286653067
-0.5465255273575599
-0.1960569128723594
-0.1779847447235225
-0.0235445893499711
-0.008694889801659085
-0.06168820421046294
-0.05691038962922625
-0.01621238486290497
-0.06922920244926221
0.003970609906973615
-0.01769295691841741
-0.09549779388526806
-0.2747885617782609
-0.009745553569140773
-0.02495623083485565
-0.02140869777090142
-0.07600639503178333
-0.08960812134327059
-0.08942259992607461
-0.0111593127247805
-0.9127985661912429
0.1615120423032946
-0.08286520211103553
-0.2530733057322823
-0.04161749855835357
-0.009304846727140477
-0.2467921801242347
-0.1926069607518889
-0.03159978772859941
-0.1156516604335626
-0.01761475032159466
0.5624148023491267
-0.02500716509355267
-0.2159986591932575
-0.02527717663646088
-0.003808071124055233
-0.01095744968406208
-1.249612342623284
-0.1830022624925142
-0.2291300594227469
0.005302198663795058
-0.03886214162983717
-0.2372969163093185
-0.06683596127013385
-0.05201458074770041
-0.14487386117198
-0.1855352136416928
-0.06959638196006333
-1.219581434335694
-0.1580984977342885
-0.5367627513439102
0.07956960358751682
-0.006538624563259993
-0.02117339714808883
-0.04430841827788089
-0.03892194636709388
-0.02781246779186171
-0.1311111342506637
0.08087654039749546
-0.00444864334420163
-0.009797205881563426
-0.5661770655790047
-0.853173377809731
-0.1784747361844353
-0.007526194502365295
-0.1245981134709062
0.0007055794399907191
-0.0007685262328832757
-0.002823059459755776
-0.06152666495410133
-0.2350793427222375
-0.01337093758302911
-0.1123096226576149
-0.155683850094043
-0.01311796797907974
-0.03474965635724585
0.02697040348571044
-0.0586049124057696
-0.07164366644033814
-0.495312157849678
-0.2372236229656842
-0.08024191149328457
-0.07488847973911641
-0.01938337574604339
-0.111926822577719
-0.1645801446452742
-0.08151091985352556
0.02738014779228819
-0.08669218718064407
-0.04994892293325003
-0.01495019829671639
-0.1155123499220724
-0.2794342175484143
-0.05894439564826246
-0.01809057553079207
0.002064812843440706
-0.01021618350954859
-0.01062383151173434
-0.2339291441198637
-0.01404090044848139
-0.2185674561860953
-0.01079030131888232
-0.06917891149417675
-0.003888774048056956
-0.02324017040154498
-0.3891895168813062
-0.9230632366123649
-0.0112414449188437
-1.044166239825516
-0.6045350613397568
-0.01067188173681912
-0.6570111062326845
-0.1843783679911418
-0.004896472123509778
-0.1250874775999387
-0.01720654871650181
-0.1244900520432294
-0.06563855822292268
-0.07681084830125937
-0.005565284222822928
-0.003627391644513555
-1.340911162027042
-0.01127533889279818
-0.19019209493098
0.0009521533823026594
-1.010318325678562
-1.243204395670406
-0.07937211977742933
0.01751932163252827
0.1644392959507281
-0.004962399446364338
-0.02295245127677351
-0.004365183009408533
-0.2414442705981361
0.3656107629196693
-0.04208101773567779
-0.2133833078790157
-0.01526050982681254
-0.6552710263589105
-0.07308573419765796
0.1897458384894812
-0.3000431177963649
-0.05078700573370795
-0.0701551426937909
-0.0158081295900076
-0.02142943127699863
-0.5894046469666296
-0.152150068324293
-0.09429002246917421
-0.1201159229598246
-0.5530668080308743
-0.04530677439900174
-0.9055030684772795
-0.0008823071658758498
-0.2426607066197929
-1.050454719430723
0.1682344501229227
0.2909832949781074
-0.1715045368888588
-0.190786454725025
-0.2111161244912147
-0.0667516485595494
0.02554155235710061
0.04821942186599766
0.005233758474454963
-0.154228545408665
0.02592045253940116
-1.362080613877056
-0.08688909678121237
-0.4774290320542335
-0.3328230394590748
-0.2167866752716882
-0.1793006116325961
-0.01697550305036325
-0.01536497719910294
-0.09467641548803823
0.1719310588008359
0.3849368050800588
-0.2152378792015895
-0.1545380117216316
-0.2299400649146509
-0.06352578241070411
-0.161747421467397
-0.1710161046491315
-0.1273120271128853
-0.1111283310862805
0.4660259626442798
-0.2802146378929522
0.4310316141313765
-0.5922132456148878
0.07211562509017953
-0.1922663971591083
-0.06763853256753022
-0.07661620007058205
-0.8892304525306356
-0.2204641290048235
-0.1917851651715283
-0.3530680301547224
-0.4641993947137004
0.5698904458292373
-0.2098763744164295
0.001849180614792556
-0.0686044364792287
0.3439716815394727
-0.03575498301450784
-0.1194866207482169
-0.1809410356172515
-0.06468489400931768
-0.01634701488961817
-0.1968443551526791
0.1937649748820602
-0.01257237289665936
-0.09830271282679222
-0.1742761446670005
-0.3158045870798351
-0.309726677714542
-0.0805812517500948
-0.009734149893948753
-0.07685852193667014
-0.6535084450179426
-0.6711633949030158
-0.3278251406335462
-0.05902157818214748
-0.05028141924906637
-0.02455736456076426
-0.06965142416249359
-0.05586070433580288
-0.3662239027875318
-0.9598295011286624
-0.008716379178761946
-0.08490885504308246
-1.142112351085216
-1.039011158644276
-0.106572755752277
-0.0408129268236473
-0.06850892205754262
0.3898829515372376
-0.341334897200741
-0.05209619596484616
-0.6028832649253756
-0.1357267336457351
-0.2499902305492183
-0.2125604396513062
0.4737019616344771
-0.6340181170209099
0.07445970537456321
-0.02862316528334684
-0.5665805842285515
-0.05371559067238962
-0.3634449848045165
0.1081185439410851
-0.1928827508464129
-0.06124351323520111
-0.126936157826697
-0.3602172422577094
-0.08673328672195152
0.5142820416598329
0.08637343252426545
0.4703857040646519
-0.1250278228564578
-0.2050808270366934
-0.5124204115122716
-0.1328113430223989
0.02494371019903924
-0.05521231335178529
0.1011150106333895
-0.3066905226028218
0.2362521124362177
0.006477709965175339
-0.002683806844351599
-0.5101867706653623
-0.1829721413728884
-0.09908751439804325
0.5810045557759523
0.1391374342007967
0.3454344237606297
0.225222138281039
-0.5642977113686055
-0.2134423992709998
-0.2190267585901089
-0.2325660887419604
-0.06193156361925119
-0.6903590218751339
-0.192163910022891
0.3051996701443495
-0.2077608344186159
-0.01111579310777796
-0.1655331943584287
-0.01128856310274307
-0.1683439597163187
-0.4440295047096631
-0.07686755004903588
-0.203772045414736
-0.07650027092959384
-0.1094125992182043
-0.134011425776758
-0.07302092009817746
-0.4436413281678577
-0.4126947668334066
-0.02519266919336998
-0.07676586701932069
0.3273065577357152
-0.2509897727537607
-0.1743291190601783
0.5250308865784448
-0.1963484257172153
0.01948027924287562
-0.4536622063834328
0.04720884529059045
-0.0603366262180094
-0.1574431929803758
-0.5894594069828127
0.1605179331098608
-0.5775468571309557
-0.5387557832625655
-0.1039226405855148
-0.5106327316035737
-0.03633307128825566
-0.1541522438832083
-0.4124322633745115
-0.01614774221169836
0.2870980679221155
0.4895030758540083
-0.1657023235920472
-0.006515832025252158
-0.07783716364241521
0.5250682513282022
-0.03238450435288875
-0.4440403478036127
-0.03182492645063746
0.4606804898277985
-0.01675756941141113
-0.5484546505019018
-0.2398081786367469
0.1768569496479916
-0.3141188614311811
-0.1812983811567213
0.04992798793121858
0.03183735754754215
0.05567865845051824
-0.3032278040378427
-0.1582866608712442
0.4126876649998126
)
;

boundaryField
{
    FrontBack
    {
        type            empty;
    }
    Top
    {
        type            zeroGradient;
    }
    In
    {
        type            zeroGradient;
    }
    Bottom
    {
        type            zeroGradient;
    }
    Out
    {
        type            fixedValue;
        value           uniform 0;
    }
    circle
    {
        type            zeroGradient;
    }
}


// ************************************************************************* //
