/*--------------------------------*- C++ -*----------------------------------*\
| =========                 |                                                 |
| \\      /  F ield         | OpenFOAM: The Open Source CFD Toolbox           |
|  \\    /   O peration     | Version:  2412                                  |
|   \\  /    A nd           | Website:  www.openfoam.com                      |
|    \\/     M anipulation  |                                                 |
\*---------------------------------------------------------------------------*/
FoamFile
{
    version     2.0;
    format      ascii;
    arch        "LSB;label=32;scalar=64";
    class       volScalarField;
    location    "8.8";
    object      p;
}
// * * * * * * * * * * * * * * * * * * * * * * * * * * * * * * * * * * * * * //

dimensions      [0 2 -2 0 0 0 0];

internalField   nonuniform List<scalar> 
808
(
0.0899082
-0.00167546
0.0288471
0.0892704
-0.251659
0.00259417
-0.00915594
0.0213123
-0.156638
-0.0595607
0.0308895
-0.171066
0.0184568
-0.00858001
-0.293101
0.016309
-0.297434
0.0156226
0.0285593
-0.0176466
0.0323875
0.357601
0.0547943
-0.0311806
0.434914
-0.191697
-0.0888175
0.00912677
0.0126659
0.01165
0.0107432
-0.00808247
0.0143432
0.0112073
-0.120769
0.601133
-0.0035005
0.0148417
-0.00359981
0.0136516
-0.0872665
-0.0896217
0.0166896
0.00886473
-0.207854
0.0691406
0.0140852
-0.0179249
-0.0156057
-0.197767
-0.00299903
-0.0147019
0.0259273
0.0103976
-0.106603
-0.0126751
0.0101265
0.0341548
-0.0551177
-0.0133443
-0.349035
-0.0268214
0.0272381
-0.222594
0.0162399
0.0254693
-0.311031
0.0142326
0.0240127
-0.300593
-0.00304346
-0.332184
0.00159404
0.00292822
0.158417
0.00666287
-0.0317879
-0.0870971
-0.00489878
0.293804
-0.139879
0.00258044
0.0200243
0.245077
0.00825928
-0.0505716
-0.375468
-0.125773
0.000865642
-0.210657
0.00835862
-0.134154
0.232274
0.136577
0.0228298
-0.32853
0.013202
-0.142649
-0.143513
-0.289709
-0.000964838
-0.023099
0.011126
-0.0421592
-0.135801
0.0413537
-0.235304
0.00992348
-0.00651652
0.00071859
-0.0945135
0.31277
0.000340738
0.026667
0.0136732
0.427886
-0.0115519
-0.28726
0.00582856
0.0243731
-0.333774
0.0165036
-0.00514982
0.0293912
0.0926329
-0.0705999
0.0789133
0.0370696
-0.00192152
0.0494349
-0.345449
0.0150499
-0.0799517
0.106891
0.0151774
-0.0132378
0.0450306
0.00527932
-0.000129616
-0.0162865
-0.306523
0.0174533
0.0393699
-0.000968152
-0.0510055
0.0485946
0.0671417
0.128898
-0.109809
0.00856309
0.00376521
0.323129
0.00498723
0.513321
-0.299311
-0.117422
-0.000444436
-0.229748
0.0353135
-0.136677
-0.322781
-0.304719
-0.326272
-0.0025346
0.043258
0.0127902
0.0009048
-0.336646
-0.00947864
0.018373
0.0116706
0.140733
0.0516621
0.095082
-3.97705e-05
0.039544
0.0486272
-0.186879
0.00243161
-0.35796
0.021574
-0.158698
-0.00831042
0.237589
-0.282203
0.0968464
0.00135697
-0.19365
0.0179003
-0.142624
-0.294332
-0.101928
0.0102369
0.0536131
-0.00686126
-0.289422
0.0034396
0.0212833
0.00746765
0.0593417
0.0358732
0.0171246
0.0164558
-0.328141
0.352157
-0.288015
-0.32167
0.00946276
0.0295097
-0.00162068
0.0100497
-0.405632
-0.363813
0.000478078
0.00912589
-0.00244387
-0.339609
-0.0560393
0.004577
0.0276017
0.00821257
-0.105966
0.0208006
0.0194059
0.00809431
0.012872
0.10481
-0.393836
0.0396318
0.0129238
0.0989372
0.0137741
0.0158662
0.0119057
-0.119786
0.0233692
0.0116191
0.0040862
0.00166093
0.0147214
0.00300001
0.00215965
0.00302625
0.00971225
0.000232432
0.00234098
0.00137494
0.000762484
0.00105403
0.0408552
-0.330906
0.0031346
0.00473492
-0.151601
0.00900971
-0.00787712
0.021914
0.00207109
0.0176901
0.107686
0.0312839
0.0097013
0.0110297
0.0695931
0.023184
0.0146125
0.0142746
0.0281236
0.0170402
0.0449694
0.0258763
-0.401894
0.256013
0.0115629
-0.0897169
0.0157101
0.0100526
0.0128646
-0.286156
0.249686
0.0208935
0.0291427
0.0201835
0.0569414
-0.198276
0.0170043
0.0542728
0.0761904
0.0265113
0.0452372
0.0025515
0.024966
0.0189081
0.0208576
0.0361439
0.0184855
0.0366366
0.0361813
0.0304688
0.0277159
0.010611
0.017382
0.0201761
0.0132866
-0.515972
-0.117018
0.0378413
0.0813969
-0.211968
-0.282348
0.0234062
0.0187482
-0.328872
0.0989533
0.126983
0.000704374
0.00198204
0.0382766
0.00990616
-0.239298
0.0240912
0.000413139
0.016974
0.0201617
0.0167143
0.0157941
0.0464964
-0.0204535
0.0196689
-0.30239
0.0653699
0.020689
0.0475796
0.0700377
-0.00742915
0.211055
0.0232987
-0.198087
0.522667
0.0549532
0.00832295
0.01237
-0.0978588
-0.0698592
0.0331367
0.0215551
-0.00927399
0.0218897
-0.0721792
-0.265688
0.0471515
0.0867789
-0.0653879
-0.291695
-0.327743
-0.385733
-0.331498
0.0606084
0.00808606
0.00760171
-0.0144048
-0.0496518
0.0104375
0.0147488
0.00153861
-0.509609
0.0592063
0.0150996
0.0170806
-0.26896
0.0753149
0.00576492
0.0836464
-0.35448
0.0436219
-0.0306862
0.0464907
0.073569
-0.308631
0.0186189
-0.318422
0.00107432
0.0857569
0.0197003
-0.00759093
0.0148143
-0.0833699
-0.346574
-0.0151828
-0.000807263
-0.0210883
0.01482
-0.0178803
0.0154083
-0.0191624
-0.0102402
-0.110528
0.00798306
0.00951038
0.0126153
-0.378461
-0.127606
0.0412419
-0.0316023
-0.128158
-0.042918
0.398295
-0.23301
0.0059076
-0.0575825
0.00820034
0.029063
0.00673686
0.0587698
-0.0313675
0.0344784
-0.0850605
-0.0199908
2.58237e-05
-0.00469005
-0.00307968
0.000398453
0.0184007
0.0888259
0.0661591
0.0119201
0.0114779
0.000169574
-0.066238
0.00886934
-0.388362
0.000632877
0.0376488
0.0113925
-0.17189
-0.369423
-0.0314247
-0.10856
-0.0286183
0.0106886
-0.261137
-0.265669
0.217943
-0.320067
-0.461
-0.209715
0.0165072
-0.0596552
-0.388543
0.327061
-0.0632474
-0.327766
-0.00952091
0.0465717
0.543876
0.0105044
-0.0185161
0.0273456
-0.0620874
-0.0270047
-0.344996
-0.292879
0.0350454
0.0350416
0.060836
-0.277356
-0.320076
-0.236545
0.00296228
0.026979
0.0718674
-0.0412132
-0.0533739
0.0583999
-0.00371533
0.00725897
-0.221154
-0.313599
0.00629563
-0.0785346
0.00865461
-0.0132918
0.0493757
-0.0712764
0.0158243
-0.467453
0.426872
-0.312966
-0.312978
-0.0482674
0.0114782
-0.306371
-0.287035
0.0934947
-0.341215
-0.172509
0.838603
-0.00255285
-0.358636
-0.00988721
-0.0611504
0.00642143
-0.466843
-0.310044
-0.319324
0.00520814
-0.231724
-0.363733
-0.0296058
-0.0357516
0.0853912
-0.321117
0.00934597
-0.505199
-0.334475
-0.395088
-0.055877
0.010067
-0.00039915
0.0870059
0.0970018
-0.0418308
-0.303156
0.277881
0.0669893
0.00803538
-0.441178
-0.501425
-0.337612
0.0234259
-0.35351
0.0596083
0.0462636
0.0176005
-0.247855
-0.248637
0.0130958
-0.319449
-0.296822
0.00943085
-0.0267821
-0.281126
-0.0251215
0.015664
-0.387059
-0.349634
-0.131404
0.0813772
0.00759221
-0.337524
-0.300128
-0.383171
-0.181934
0.020163
0.0805922
0.00468596
-0.398098
-0.308013
0.0832429
0.0112963
-0.148128
0.0249628
0.0330139
-0.341852
0.0230555
-0.286043
0.035294
-0.307353
0.0382623
0.00561115
-0.374189
-0.462986
0.0017159
-0.481015
-0.46475
0.0313165
-0.0778099
-0.290261
0.00638724
-0.311214
0.0231528
0.062182
0.0329673
-0.3134
0.0468075
0.061896
-0.454819
0.0148059
-0.336402
0.00240828
-0.331203
-0.514694
0.0724741
0.25681
0.421552
0.00773716
0.00566411
0.00253754
-0.344415
0.62525
0.00132946
-0.222246
0.0221567
-0.0926975
0.054914
0.469184
-0.379304
-0.0633247
-0.061098
0.024605
0.00945832
-0.459622
-0.294285
-0.357459
-0.319193
-0.292649
-0.0150855
-0.373338
0.0499524
-0.275873
-0.315239
0.500863
0.575045
-0.313718
0.0870435
-0.295626
-0.0477646
0.0164468
0.396502
-0.00419305
-0.328109
0.0616319
-0.512322
-0.0416529
-0.207501
-0.0315115
-0.323961
-0.28427
0.00607687
0.00595422
-0.327607
0.419737
0.658081
-0.345731
-0.309367
-0.338862
-0.0773621
-0.315162
-0.29304
-0.191987
-0.327921
0.74021
-0.349312
0.716751
-0.421536
0.304105
-0.3227
-0.0145206
0.160329
-0.505734
0.194486
-0.286329
-0.319755
-0.34698
0.85219
-0.297765
0.183585
0.122258
0.617401
0.0970492
-0.339345
-0.291506
-0.206879
0.0107311
0.0765828
0.492219
0.0102097
-0.0396074
-0.296001
0.110755
-0.144823
-0.346967
0.0231734
-0.304409
-0.181269
-0.161193
-0.373549
-0.0112444
0.0757797
-0.0124167
0.0582449
0.0835917
-0.341304
-0.360437
-0.00737869
-0.00652796
-0.468504
-0.516573
0.16677
0.177587
0.061897
0.655227
-0.103283
-0.312255
-0.388074
-0.308621
-0.0835498
0.0704904
0.7456
-0.455639
0.348003
-0.020245
-0.43339
0.137234
-0.0830668
0.358654
-0.166467
-0.00138744
-0.334866
-0.102903
0.166947
0.788234
0.31014
0.744377
-0.38156
-0.308259
-0.424165
0.154947
0.252089
0.0442474
0.367918
0.108049
0.476555
0.262517
0.00408847
-0.209192
-0.00184628
-0.320352
0.862597
0.388504
0.637315
0.491947
-0.272091
-0.359999
-0.294617
-0.314627
0.0321974
-0.420323
0.0759321
0.581248
-0.372944
0.00951578
-0.313976
0.170286
-0.33796
-0.375484
-0.193043
-0.296318
-0.336612
-0.359078
-0.344107
-0.153912
-0.423385
-0.156349
-0.307634
0.130866
0.627463
-0.228488
-0.323629
0.810964
-0.323846
0.261028
-0.24398
0.359408
0.0615965
-0.372292
-0.403003
0.432543
-0.295167
-0.328103
0.162929
-0.281595
-0.0362579
-0.30536
-0.126262
0.0245553
0.545307
0.758034
-0.302894
0.202758
-0.338859
0.80162
-0.0266422
-0.320421
-0.0338434
0.739036
0.191996
-0.327919
-0.292366
0.429378
-0.220723
0.0235634
0.340026
0.237991
0.272915
-0.259976
-0.329536
0.667296
)
;

boundaryField
{
    FrontBack
    {
        type            empty;
    }
    Top
    {
        type            zeroGradient;
    }
    In
    {
        type            zeroGradient;
    }
    Bottom
    {
        type            zeroGradient;
    }
    Out
    {
        type            fixedValue;
        value           uniform 0;
    }
    circle
    {
        type            zeroGradient;
    }
}


// ************************************************************************* //
