/*--------------------------------*- C++ -*----------------------------------*\
| =========                 |                                                 |
| \\      /  F ield         | OpenFOAM: The Open Source CFD Toolbox           |
|  \\    /   O peration     | Version:  2412                                  |
|   \\  /    A nd           | Website:  www.openfoam.com                      |
|    \\/     M anipulation  |                                                 |
\*---------------------------------------------------------------------------*/
FoamFile
{
    version     2.0;
    format      ascii;
    arch        "LSB;label=32;scalar=64";
    class       volVectorField;
    location    "8.8";
    object      U;
}
// * * * * * * * * * * * * * * * * * * * * * * * * * * * * * * * * * * * * * //

dimensions      [0 1 -1 0 0 0 0];

internalField   nonuniform List<vector> 
808
(
(0.889338 -0.0164266 0)
(1.00382 -0.0333019 0)
(1.08282 0.0317529 0)
(1.07163 0.0151003 -1.86345e-21)
(1.48049 -0.28273 0)
(0.951854 -0.0228897 0)
(1.11569 -0.0559855 1.27569e-21)
(1.03709 0.00401252 0)
(1.36315 -0.223628 3.00422e-20)
(1.23443 -0.0828493 -1.6148e-20)
(1.10119 -0.0444165 6.0719e-21)
(1.39236 -0.252146 0)
(0.986246 -0.00244394 0)
(0.715598 -0.021449 0)
(0.973244 0.0479618 2.04093e-20)
(1.04557 0.00396684 0)
(0.859679 0.0145022 -6.33128e-21)
(0.982912 0.00882113 -7.28696e-23)
(1.06874 0.0229867 0)
(1.10317 0.01165 0)
(1.10303 -0.0611735 -8.47426e-21)
(0.929775 0.124918 1.03563e-19)
(1.06882 0.0128509 -9.61635e-21)
(1.17354 -0.022195 0)
(0.950103 0.177989 0)
(1.34777 0.0346926 -3.32764e-20)
(1.28949 -0.168084 1.42298e-20)
(0.986438 -0.0021976 -4.38545e-21)
(1.06142 0.00873255 0)
(1.04957 0.00951503 -2.19611e-22)
(0.995989 -0.0011364 3.27191e-24)
(1.11118 0.0011727 0)
(1.02225 0.000505296 0)
(1.0686 0.00550666 3.30376e-21)
(1.31367 -0.0560177 1.15957e-20)
(0.740642 -0.120971 1.06021e-19)
(0.853153 -0.0438999 4.86782e-22)
(1.01033 0.0116305 8.16586e-22)
(1.14708 0.0478562 1.05528e-21)
(1.07797 -0.00356671 0)
(1.26491 -0.0495588 -2.29068e-20)
(1.28142 -0.122565 0)
(0.990358 0.00479879 -4.02936e-21)
(1.07125 -0.0439143 3.52351e-21)
(1.26065 -0.0554788 0)
(1.00517 0.0182159 -1.54451e-20)
(0.991034 -0.00124665 1.20013e-21)
(1.2617 -0.246113 1.70972e-20)
(1.15037 0.0706655 4.14661e-21)
(1.41996 -0.172094 -4.3402e-20)
(1.10326 -0.0621763 -1.25853e-21)
(1.14846 -0.0699005 0)
(1.1165 -0.00777947 3.56375e-21)
(1.05372 0.00303394 0)
(1.31187 0.22272 6.22156e-21)
(1.07408 0.036017 8.10331e-22)
(1.03845 -0.00276555 0)
(1.06913 -0.0397852 3.71228e-21)
(1.24071 -0.0862919 1.73337e-20)
(1.11529 0.0392503 1.36703e-21)
(-0.400634 0.199267 0)
(1.22228 -0.2115 -1.16921e-20)
(1.0736 -0.027802 0)
(1.44669 -0.054203 -3.40698e-20)
(1.07742 -0.0260266 -4.5858e-21)
(1.0454 -0.0326331 -3.92358e-21)
(1.39745 -0.125168 3.56984e-20)
(0.70424 -0.00476986 0)
(1.07685 -0.048177 0)
(1.4549 -0.35351 0)
(0.82928 0.00540217 3.09882e-23)
(1.26868 -0.140838 -4.42794e-20)
(0.987802 0.0393849 0)
(1.04068 -0.0262537 -3.9637e-22)
(1.12906 -0.336956 -5.02816e-20)
(1.07759 -0.064296 -3.06098e-21)
(1.13296 0.0427988 8.67561e-22)
(1.3168 0.487785 2.50321e-20)
(1.10307 -0.0347597 0)
(1.01064 0.275992 -1.70144e-19)
(1.34344 0.0236831 1.94664e-20)
(0.742096 -0.00784413 0)
(0.910343 -0.00065307 -5.77495e-21)
(0.973521 -0.114833 3.76192e-21)
(1.06806 -0.0732257 2.82222e-21)
(1.17948 0.0330635 2.15606e-21)
(1.29894 -0.237215 0)
(1.34373 0.275148 0)
(1.09907 0.0152753 -4.80675e-22)
(1.3897 0.0725584 3.63402e-20)
(1.06997 -0.00887266 3.78964e-21)
(1.329 -0.11256 -1.73896e-21)
(0.967132 0.0219028 1.52428e-20)
(1.00539 -0.0206634 0)
(1.10774 0.012341 8.5995e-22)
(1.39418 -0.0329386 -9.54737e-20)
(0.896157 -0.00465199 -1.97284e-21)
(1.3523 -0.0415837 0)
(1.33452 -0.0735401 0)
(1.44238 -0.0940181 -5.41967e-20)
(1.07344 -0.0409246 -2.03336e-22)
(1.10988 0.0252667 1.60588e-22)
(0.945142 0.025217 3.76978e-21)
(1.16838 0.0288533 -1.02e-21)
(1.3175 0.0630605 -3.15572e-20)
(0.990524 -0.00538453 9.55784e-21)
(1.44517 -0.0580636 0)
(1.0537 -0.00515251 0)
(1.08686 0.0365993 -9.79442e-22)
(1.21165 -0.21567 -4.0346e-21)
(1.26058 0.0493674 1.51314e-20)
(1.04246 0.0447836 -1.14462e-19)
(1.11922 0.0378826 5.12091e-23)
(1.19428 0.0838045 3.87579e-21)
(0.906693 0.00805159 0)
(0.915523 -0.0471366 7.14503e-20)
(1.12634 0.047015 2.97158e-21)
(1.4523 -0.265375 -2.05343e-20)
(1.04157 -0.0101085 -2.70281e-21)
(0.924068 0.0132485 2.28711e-21)
(-0.412981 0.0846603 0)
(0.860405 -0.0193218 1.66051e-21)
(0.782288 0.0330128 0)
(1.07128 -0.0065714 -4.86174e-23)
(1.01564 0.0262653 0)
(1.30577 0.312674 9.66949e-21)
(1.03378 -0.0533661 -2.40603e-20)
(1.22954 0.096301 2.17358e-21)
(1.15393 -0.0493667 0)
(1.09279 -0.020963 0)
(0.656195 -0.065033 0)
(1.03698 0.012227 -2.03962e-21)
(1.24558 -0.0355713 1.34097e-20)
(1.06545 0.110295 -2.87893e-20)
(0.933843 0.010395 0)
(1.101 0.0328826 6.14925e-22)
(1.13033 0.0900864 2.46385e-21)
(1.05771 -0.00777045 -8.61858e-22)
(0.957785 0.0361902 -1.46455e-22)
(1.1151 0.027745 -1.34628e-22)
(-0.00365196 0.0388176 0)
(1.08625 -0.0164745 -4.29223e-21)
(1.09885 0.0652435 1.99205e-21)
(0.693279 0.0428435 -2.37706e-22)
(1.25443 0.161351 1.82811e-21)
(1.14177 0.0774728 3.15386e-21)
(1.04916 0.0219038 1.15758e-20)
(0.993808 0.0301043 0)
(1.15227 -0.145607 -1.74531e-20)
(1.05254 0.00444648 0)
(0.895131 0.0393129 4.44187e-22)
(0.968608 0.277654 1.36205e-19)
(0.951583 0.0331135 0)
(0.81987 0.0929384 0)
(-0.167934 -0.0226176 -7.46435e-20)
(1.32577 0.119617 -1.44182e-20)
(0.650926 -0.018086 0)
(1.42426 0.0261717 0)
(1.10759 0.0713773 0)
(1.34293 0.0834289 1.57964e-20)
(-0.0425791 -0.152817 0)
(-0.0708983 0.055749 3.57606e-20)
(1.03814 -0.0617295 9.37638e-20)
(0.977243 0.0323776 -5.63137e-22)
(0.857159 0.0033848 0)
(1.02362 0.000289329 4.71642e-21)
(0.880902 0.0308347 0)
(0.800546 -0.0552647 -1.01311e-19)
(1.03959 0.0818997 -5.66025e-21)
(1.07163 -0.020898 1.7218e-21)
(1.08668 0.00910846 1.08085e-21)
(1.01043 0.0645865 -1.01433e-20)
(0.878898 0.0443399 -3.13959e-21)
(1.14351 -0.347976 3.22601e-22)
(0.918374 -0.0160564 0)
(1.06423 0.00998074 -8.09535e-21)
(0.879431 0.00240007 -7.61997e-21)
(1.39312 -0.165667 2.64018e-21)
(0.697023 0.0213891 0)
(1.06101 -0.145752 0)
(1.05291 -0.0202991 1.82217e-21)
(1.38467 0.20334 1.1578e-20)
(1.10282 0.0233005 -3.42356e-22)
(1.03426 0.0213416 1.68181e-20)
(0.711536 0.0398329 -7.30984e-20)
(0.814299 0.00110633 1.522e-20)
(1.13606 -0.0168898 2.94761e-22)
(1.39421 -0.0502789 -6.42076e-21)
(1.06374 -0.0161467 -3.72614e-21)
(1.33127 -0.0191764 5.5022e-21)
(-0.178567 0.00825648 5.44257e-20)
(1.27342 0.00303076 0)
(0.62304 0.00126723 0)
(1.06063 -0.0143211 -3.83842e-21)
(1.09881 0.0262441 -2.9462e-21)
(0.0530407 0.0610261 0)
(0.915032 -0.00101484 8.8887e-23)
(1.05282 -0.00751456 -2.18605e-21)
(1.05176 -0.00613928 1.49951e-21)
(1.07644 0.0298497 -5.7181e-21)
(1.00215 0.0268396 2.95147e-21)
(1.00939 -0.00566956 1.92831e-21)
(1.06208 0.00482909 0)
(0.342722 -0.045318 0)
(1.04606 -0.064235 0)
(1.15663 0.0956782 -3.14573e-20)
(-0.0383049 -0.170574 5.1867e-20)
(1.07571 -0.0077481 -1.30506e-23)
(1.07691 0.0289159 0)
(0.746065 0.0323418 -4.43392e-23)
(1.04981 -0.00464674 1.7062e-21)
(-0.00820976 -0.0404933 -1.60671e-19)
(0.939361 0.00163579 -6.94608e-20)
(0.610171 0.00356496 0)
(1.04551 0.000473293 0)
(0.909583 -0.00364068 6.33786e-22)
(1.03309 -0.117251 6.24761e-21)
(1.27568 0.389452 3.71466e-21)
(1.05644 0.000882216 -3.5576e-23)
(1.05929 -0.0285389 -3.75737e-21)
(1.05189 0.00165675 0)
(1.35885 0.413603 -4.59061e-20)
(0.686047 -0.00706103 0)
(0.914591 -0.00919069 -2.7716e-21)
(1.07228 0.00629889 -4.75508e-22)
(0.646696 0.0128761 0)
(1.10069 -0.00597384 0)
(0.1692 -0.015383 -6.25716e-20)
(1.11589 -0.0325767 -7.18413e-21)
(0.880037 -0.00304701 1.9877e-21)
(0.993065 -0.00128514 0)
(0.660744 -0.0049034 0)
(0.888061 -0.00870871 -2.7018e-21)
(0.670365 -0.0123709 -1.97883e-22)
(1.30903 0.0145844 3.62023e-22)
(1.06667 0.00263058 -3.27536e-21)
(0.86081 0.004696 -1.85054e-21)
(1.05225 -0.000209456 4.47519e-22)
(1.06144 -0.00531812 3.35217e-23)
(0.658573 0.00679987 4.43119e-21)
(1.04136 0.000880097 3.4816e-22)
(1.04774 0.002157 0)
(1.05539 -0.00344237 0)
(0.648736 0.00980607 0)
(1.05027 -0.000511587 0)
(1.0577 -0.00218004 -7.74151e-22)
(1.05643 -0.00264846 0)
(1.04934 0.00242038 0)
(1.05388 -0.000607796 0)
(1.11833 0.0718171 0)
(-0.0232807 -0.0561482 5.13586e-20)
(1.04904 0.000255138 4.77323e-22)
(1.04736 -0.00247398 0)
(1.32269 0.0822763 1.99116e-20)
(1.04361 -0.00796436 9.37272e-22)
(1.08512 0.03186 -6.73075e-22)
(1.05548 0.00534571 3.64735e-21)
(1.04794 0.00270154 0)
(0.650434 -0.00198625 5.58832e-21)
(1.04343 0.0364449 9.86551e-21)
(1.11273 -0.0118262 0)
(1.05905 0.00888123 -1.90032e-21)
(1.05178 0.00437084 2.18698e-21)
(0.638762 0.0116294 -1.24381e-20)
(1.06272 0.00264781 3.61086e-21)
(1.05716 0.00541586 -3.77004e-21)
(1.05064 -0.00161733 0)
(1.18931 0.0426088 -1.25393e-20)
(1.05051 0.00167337 -2.44832e-21)
(0.96627 0.0595756 8.44632e-21)
(1.03842 0.0125456 0)
(-0.0220239 -0.0220972 0)
(0.977015 0.112464 -1.64619e-20)
(1.04805 0.00505447 0)
(1.31904 -0.0902169 3.01663e-20)
(1.0531 -0.00721042 6.63021e-22)
(1.05445 0.0109474 3.62391e-21)
(1.07223 -0.000625134 -1.93658e-21)
(1.39052 -0.0107688 1.37947e-19)
(1.02206 -0.327234 5.07645e-20)
(1.04804 0.00594379 -3.15694e-22)
(1.03315 0.0181058 0)
(1.04457 -0.00425573 0)
(0.897559 0.00438083 -1.86282e-20)
(1.3054 -0.137274 -5.20908e-20)
(1.05668 0.0115879 0)
(0.871897 0.0537107 1.12723e-20)
(0.567293 -0.041958 0)
(1.03193 -0.00827092 4.98312e-21)
(0.955925 0.0691701 -1.29498e-20)
(0.772722 0.00344243 -2.58726e-22)
(1.06151 0.0101018 0)
(1.05667 -0.00106002 -7.7335e-22)
(1.06098 0.000126637 3.55909e-21)
(1.0092 -0.00559094 -7.02218e-21)
(1.06422 0.0168434 -3.34344e-21)
(1.01632 0.034497 0)
(1.09399 0.0679347 0)
(1.09407 -0.0108612 4.93428e-21)
(1.0301 -0.00937324 -5.03375e-21)
(1.05555 0.00646762 3.44377e-21)
(1.04916 0.010722 -3.06328e-21)
(1.04618 0.00661268 4.56774e-22)
(1.04912 0.0132991 0)
(0.419846 -0.139958 1.45704e-20)
(1.31014 0.068552 -2.48755e-20)
(1.0063 0.0469212 -9.88183e-21)
(0.290879 -0.0512667 1.31523e-20)
(1.4418 -0.121387 3.02042e-20)
(0.882535 -0.0278545 6.82916e-20)
(1.09628 0.000154746 -5.06711e-21)
(1.0488 0.00848754 -3.08039e-22)
(-0.0573234 -0.18435 -8.91684e-21)
(0.994092 -0.00742331 0)
(1.03362 -0.0861444 -1.45296e-20)
(0.837084 -0.0334548 -5.37952e-22)
(1.05021 -0.0424162 4.70806e-22)
(0.994125 -0.0132851 -1.01449e-21)
(0.677905 -0.00647339 1.21657e-21)
(1.42046 -0.382609 -1.55529e-20)
(1.05323 0.0186382 0)
(1.05924 -0.00490304 -4.89747e-22)
(1.09624 -0.00670753 -1.23527e-21)
(1.0704 0.00173572 0)
(1.04706 -0.00549938 -6.07834e-21)
(1.10215 -0.00601055 1.39568e-21)
(0.957524 -0.00150586 1.78939e-20)
(1.13534 -0.0551415 1.11003e-20)
(1.03969 -0.0163682 3.33037e-21)
(-0.0481317 -0.0994063 0)
(0.409024 0.0911738 -1.381e-20)
(1.07783 0.00823331 0)
(0.969668 0.0727289 -1.02172e-20)
(0.994231 0.0838132 0)
(1.11495 -0.00628445 -2.6396e-21)
(1.01372 0.0261698 0)
(1.07096 -0.00633103 0)
(1.40908 -0.112741 2.58302e-20)
(0.796751 -0.0908562 0)
(1.13809 -0.0769698 1.8435e-20)
(1.05072 0.0028668 1.45895e-22)
(1.04384 -0.00713408 1.48452e-21)
(1.27706 -0.0810315 -1.79885e-20)
(1.23887 0.114894 -8.98452e-21)
(1.13138 -0.0314493 1.29033e-20)
(1.09165 -9.25064e-05 0)
(1.13859 -0.0851613 0)
(1.08096 0.00532973 1.51313e-21)
(1.22671 -0.0594038 0)
(1.41227 0.199141 -2.83392e-20)
(0.931185 -0.00962511 1.35577e-21)
(1.02855 0.0114697 1.6817e-20)
(1.22256 0.0659952 -3.93332e-22)
(-0.0137882 -0.0284831 0)
(-0.0336481 -0.100217 0)
(0.179074 -0.0335242 -5.34583e-20)
(-0.036851 -0.182328 0)
(0.874177 -0.0123145 -1.1873e-20)
(1.13273 -0.00251773 4.25414e-22)
(1.0922 -0.0910853 -2.34702e-21)
(1.18954 -0.140227 -4.75377e-21)
(1.20556 -0.0629059 0)
(0.863036 0.00065246 -1.84726e-21)
(1.11351 0.0101012 0)
(1.07584 0.00121064 4.45752e-22)
(0.508688 -0.110805 0)
(0.863706 -0.0450575 -4.26906e-22)
(1.11154 0.0353929 0)
(1.0723 -0.000896262 0)
(0.812674 0.181546 6.23868e-20)
(0.783607 -0.0554312 -2.16241e-21)
(1.05951 0.0101118 1.17095e-21)
(1.01628 0.0160499 -6.57763e-21)
(0.199354 -0.123695 0)
(1.1275 -0.0449163 -2.13244e-20)
(1.18608 0.0793941 -4.5609e-21)
(1.1141 -0.0600896 1.01913e-21)
(0.819272 -0.08803 1.05803e-20)
(-0.0623826 -0.137846 -1.07368e-19)
(1.11586 0.0782962 0)
(-0.0350604 0.0406244 0)
(1.13767 0.0560711 1.30736e-21)
(0.689859 -0.103564 -1.13867e-20)
(1.05366 0.00406059 -7.74249e-21)
(1.09689 -0.0456113 0)
(1.08789 -0.0700841 1.78642e-21)
(1.27832 -0.21918 1.66693e-20)
(0.55037 -0.0536363 -1.03441e-20)
(1.14656 -0.0543509 2.57431e-21)
(1.11847 -0.104655 3.09452e-23)
(0.417113 -0.101074 1.02708e-20)
(1.13262 -0.124617 -6.46443e-21)
(1.10376 0.0384103 0)
(1.11744 0.0755952 0)
(1.16029 -0.084619 4.34661e-21)
(1.14514 0.0735406 4.12216e-21)
(0.674017 -0.13733 -3.35539e-20)
(1.19554 -0.11372 -4.51267e-21)
(1.08074 0.0565989 2.68215e-21)
(0.567852 0.00505876 7.18426e-21)
(0.585603 0.103846 -1.17844e-19)
(0.0688952 0.031776 2.195e-20)
(1.17135 0.181878 -6.63599e-21)
(1.2412 -0.496176 7.40876e-21)
(1.35564 0.109399 -1.84361e-20)
(1.18715 -0.0750032 -5.15102e-21)
(0.937449 -0.237825 8.83104e-20)
(-0.17324 0.0205768 0)
(1.05026 -0.0116873 -4.46984e-22)
(0.0737388 0.235988 -3.41476e-21)
(1.13146 0.0810817 -1.13127e-21)
(1.06387 -0.0138159 5.36554e-21)
(1.07375 -0.0215725 0)
(0.792368 -0.123909 0)
(1.16591 -0.0371919 0)
(1.23751 0.122777 2.34613e-21)
(1.24315 0.00896479 -3.17881e-20)
(1.14134 -0.0499307 -5.19007e-21)
(0.644067 0.0182482 0)
(0.787038 0.00514799 0)
(0.800679 -0.00644895 -2.07372e-24)
(0.661352 -0.0109593 0)
(1.06517 -0.00238232 0)
(1.01739 -0.00953941 1.888e-20)
(0.561873 -0.132704 0)
(0.959093 0.00696855 0)
(1.04944 0.00175282 0)
(1.17276 0.180114 8.50388e-22)
(1.2299 0.0685133 1.10986e-20)
(0.962497 -0.0372174 2.87639e-21)
(1.30454 -0.403135 -1.17167e-19)
(0.750703 -0.162461 1.86719e-21)
(1.17261 0.0389199 4.32153e-21)
(1.06344 0.00178351 0)
(-0.320883 -0.103485 0)
(-0.236926 0.0285237 0)
(1.14687 -0.0485669 -8.75017e-21)
(1.33237 -0.287298 -3.74292e-20)
(1.22084 0.125017 0)
(1.07241 -0.00781514 -3.13471e-21)
(0.522806 -0.0826497 0)
(1.52192 -0.162055 8.52502e-20)
(0.410154 0.51518 1.07283e-19)
(0.285512 -0.0568046 0)
(1.11013 -0.279522 1.25778e-19)
(0.493612 0.221389 0)
(-0.00800461 -0.0363395 1.30485e-20)
(1.27826 0.121835 0)
(-0.0515417 0.0611191 3.37245e-21)
(0.983116 -0.0503355 0)
(1.2501 -0.110938 -1.30494e-20)
(-0.174571 -0.111495 -9.02863e-21)
(1.11287 -0.050542 -1.56915e-21)
(1.1385 -0.0744818 -7.84182e-21)
(0.575967 -0.523772 -8.71461e-20)
(1.06014 0.000204935 -1.46488e-21)
(1.19826 -0.122829 -6.68588e-22)
(1.17791 0.241065 -1.37109e-20)
(1.17016 -0.192051 -5.18179e-21)
(1.14628 -0.0395386 -1.68517e-21)
(-0.205738 0.0200496 -6.29579e-20)
(0.0294975 0.0573677 -8.09218e-21)
(1.2161 0.0852041 1.55318e-21)
(1.05471 -0.0519462 0)
(0.738842 -0.000828946 -6.02664e-21)
(1.41336 -0.443393 9.23969e-20)
(0.958549 -0.0880947 -6.64592e-20)
(1.42394 0.136924 8.33002e-20)
(1.07363 -0.05367 2.13136e-22)
(1.14214 -0.0938542 6.51626e-21)
(1.06053 -0.00325082 0)
(1.17011 -0.000624482 0)
(1.27142 -0.114321 5.28049e-21)
(1.08776 -0.0132785 -4.59196e-21)
(1.23151 -0.211674 5.7551e-21)
(1.07894 0.0701741 -1.77603e-21)
(1.44642 0.0221892 -5.8708e-20)
(0.456416 0.0260084 0)
(1.18551 -0.145442 8.59833e-22)
(1.24724 0.12571 0)
(1.07936 0.0809614 -1.82824e-21)
(1.1465 0.0192184 0)
(1.04614 -0.00847756 7.8418e-21)
(1.23114 0.0337534 2.01354e-20)
(1.05891 0.000800998 0)
(0.0537581 -0.0302158 1.67969e-19)
(0.883195 -0.21591 -6.92659e-20)
(1.39066 0.0773167 -3.90486e-20)
(-0.133881 -0.112798 4.55121e-20)
(1.17353 0.0499938 4.36523e-22)
(1.03714 -0.00293384 -2.18046e-21)
(-0.131062 -0.0741216 -4.74503e-20)
(-0.0278453 -0.0162651 -2.89062e-20)
(1.0192 -0.0252384 0)
(-0.0287987 -0.0379486 0)
(1.22 0.153957 0)
(0.112064 -0.110624 0)
(1.11373 -0.0499422 0)
(0.136545 0.0289409 0)
(1.09301 0.0471676 0)
(1.13885 0.188394 0)
(1.20875 0.0911398 -3.10404e-21)
(0.581162 -0.287919 -2.32866e-20)
(-0.263935 0.0128866 0)
(1.16652 -0.0949587 6.91763e-20)
(1.0518 -0.00379216 1.07417e-21)
(1.38312 0.150493 0)
(-0.0384352 -0.0419722 0)
(1.15675 0.0052955 6.72673e-21)
(1.16147 -0.031058 -2.94045e-21)
(1.16612 0.383259 0)
(0.27014 -0.101549 6.63251e-20)
(1.12494 0.0596851 5.95393e-22)
(0.237779 -0.052532 -5.67312e-20)
(-0.0600269 0.0461742 -3.44558e-20)
(-0.0318612 0.048878 8.83114e-20)
(0.590954 0.160815 3.36517e-21)
(1.05036 -0.00681598 2.05194e-21)
(1.0894 0.044819 1.1156e-21)
(1.0205 -0.0115453 0)
(1.07316 -0.0635278 -1.68081e-20)
(1.19507 0.0894997 -1.19284e-20)
(-0.012485 -0.0507802 1.09232e-19)
(0.985428 -0.0731753 -5.42172e-20)
(0.773304 0.00350219 1.13081e-20)
(1.06107 0.004124 -1.77527e-21)
(0.0732955 -0.0326188 3.66534e-20)
(0.248096 -0.0391462 -5.14435e-20)
(0.412325 -0.073411 -6.01397e-20)
(1.17834 0.0775494 4.67032e-21)
(-0.0563156 -0.0367852 0)
(1.0899 0.0835789 5.47339e-21)
(1.19571 -0.183533 1.03806e-20)
(1.14544 -0.188608 -1.00091e-20)
(1.29732 0.107279 0)
(1.52177 -0.220296 8.24779e-20)
(1.07903 -0.000750039 -2.36393e-21)
(-0.016838 -0.0581627 -3.75984e-20)
(0.303297 0.0739084 0)
(0.950245 0.00177025 -2.214e-21)
(1.11069 0.0357613 -1.99131e-21)
(0.82559 -0.107758 2.05875e-20)
(1.16099 0.000834581 -2.65408e-21)
(1.11814 0.0473866 0)
(1.1582 -0.171924 -1.60165e-20)
(-0.0731282 -0.166991 -7.91352e-20)
(1.32108 0.00391255 2.98606e-20)
(1.1045 0.171371 -8.83639e-21)
(1.07497 0.0439386 2.03121e-21)
(-0.0407404 -0.0677451 1.71938e-20)
(-0.0257975 0.0329036 -6.77324e-20)
(0.885066 0.0822385 0)
(0.892376 0.241818 0)
(1.15238 0.0988731 -1.00361e-20)
(1.05311 0.0646056 9.40988e-21)
(1.0618 0.000584125 0)
(0.648478 -0.0208481 6.69394e-20)
(0.745351 0.082088 -1.22606e-20)
(1.09806 0.108907 0)
(1.0789 0.0109181 0)
(1.35962 0.188309 0)
(1.05692 0.0157806 0)
(1.13807 0.0331168 2.49773e-21)
(-0.0421701 0.0453009 3.76328e-20)
(1.04237 -0.00139243 4.68599e-21)
(1.43645 -0.194593 -9.51471e-20)
(1.11285 0.0372795 -3.91612e-21)
(-0.108299 0.0653825 0)
(1.167 -0.148602 0)
(0.814344 -0.00704738 -1.44988e-21)
(0.547668 0.00748808 -6.26786e-20)
(0.0771715 0.0349314 5.06209e-20)
(1.03815 0.00456153 9.25348e-22)
(0.749317 -0.274411 0)
(0.685608 -0.0931005 0)
(1.07535 0.0280172 0)
(0.538527 0.510954 2.5101e-20)
(-0.0184084 0.00805964 -3.18951e-20)
(1.04801 -0.00406615 -1.34936e-21)
(-0.0252007 -0.101691 7.16785e-20)
(1.04861 -0.00190846 2.15638e-21)
(1.17215 0.308697 2.61512e-20)
(1.1153 -0.0868053 4.94551e-21)
(0.24338 0.0254272 8.23659e-20)
(1.09703 0.0511697 2.68581e-21)
(1.17885 -0.130428 0)
(0.561033 0.271021 0)
(1.04233 -0.0049051 3.55581e-21)
(-0.224855 -0.062659 0)
(0.676905 0.0162466 2.52791e-22)
(0.607242 -0.419972 -3.56741e-21)
(0.245086 0.0489003 -1.17228e-19)
(1.13094 -0.226739 2.33861e-20)
(1.03635 0.359198 9.31e-21)
(0.975779 0.0168594 0)
(1.06036 -0.00549061 2.46918e-22)
(0.811548 0.00901144 0)
(1.04134 0.00353947 2.56714e-24)
(0.443888 -0.0219306 0)
(0.712056 0.123394 0)
(0.995514 -0.0360171 -1.68529e-23)
(1.43852 0.16156 -1.60192e-20)
(1.04675 0.000579186 2.38544e-21)
(0.524617 -0.494899 0)
(1.13593 -0.154308 1.29249e-22)
(0.80214 0.371616 6.6835e-20)
(-0.03551 0.0204254 1.24626e-21)
(1.2195 -0.0297053 1.36517e-20)
(1.21275 0.0293987 -1.60183e-20)
(1.06283 -0.0099495 6.7013e-22)
(0.8798 0.00561984 -2.43257e-21)
(0.0680803 0.017932 3.98815e-20)
(-0.0221898 -0.0713176 -6.09889e-20)
(-0.242334 -0.0424494 0)
(-0.322906 0.104694 0)
(1.19162 -0.617579 3.46065e-20)
(1.13801 -0.0321223 1.64437e-21)
(0.893944 -0.467065 -4.8045e-20)
(1.04223 0.0601272 -1.24539e-20)
(1.36964 0.189668 3.72614e-20)
(0.603342 0.419139 0)
(0.244874 0.410957 -1.10666e-19)
(0.593256 0.473682 0)
(-0.00618278 0.0349047 0)
(1.12818 -0.481128 0)
(-0.0591105 -0.0252733 -3.37371e-22)
(1.19412 0.0065009 0)
(0.859453 0.172553 -5.05003e-21)
(0.591845 0.686647 2.02411e-20)
(1.26259 0.172338 3.00762e-22)
(-0.0273199 -0.14389 -1.20809e-19)
(0.755905 0.11691 1.76361e-20)
(0.456687 0.144576 -1.40716e-20)
(1.20438 0.0851082 0)
(1.35948 0.349044 4.0771e-20)
(1.21989 0.56014 1.1466e-20)
(0.170594 -0.0186628 -2.39845e-20)
(1.01727 0.121447 3.48224e-20)
(0.977227 0.00496589 1.38887e-21)
(0.967267 0.00744229 -4.40263e-22)
(-0.0115684 -0.0379814 0)
(0.648884 -0.658451 -2.80298e-20)
(0.613024 0.193909 0)
(0.127838 -0.164858 0)
(-0.0487448 0.0577513 0)
(0.0257247 -0.175731 -4.62325e-20)
(1.23291 -0.0107741 -1.56494e-20)
(-0.0235171 0.0510925 0)
(-0.0379013 0.0352939 0)
(1.45589 0.103865 -8.03951e-20)
(-0.0360869 -0.100343 5.44397e-20)
(0.114074 0.230117 -9.81605e-20)
(0.400159 0.0139872 0)
(0.169933 -0.282624 7.80452e-20)
(1.09879 -0.241873 0)
(0.999633 -0.286562 0)
(0.0261492 -0.139092 1.14729e-19)
(1.14797 0.0408036 6.33676e-23)
(1.12349 0.336974 2.46538e-20)
(0.270488 0.0269878 4.86503e-20)
(0.404926 -0.520659 -3.23102e-20)
(1.30004 0.0680077 0)
(1.2275 0.188218 2.36201e-20)
(1.22453 0.204933 -2.90113e-20)
(0.101944 0.0831908 -2.27605e-20)
(-0.0823993 -0.0680511 0)
(1.07494 -0.0516086 -1.88922e-20)
(1.1085 -0.222929 -1.15571e-20)
(0.583635 -0.41028 0)
(1.10125 -0.152659 -2.26211e-20)
(-0.165858 0.0720181 0)
(0.610653 0.035497 0)
(1.4354 0.084309 4.67026e-20)
(1.02292 -0.010667 3.32391e-22)
(1.07337 0.737711 -1.30539e-20)
(0.226133 -0.382 1.23975e-19)
(1.08055 -0.00683984 8.26765e-23)
(1.20483 0.0735551 2.4789e-21)
(-0.0583913 0.0417711 3.23522e-20)
(0.784834 0.72891 2.49183e-20)
(1.35831 -0.369955 -1.32909e-20)
(0.117796 0.100861 9.83906e-20)
(1.05397 0.00734608 0)
(0.129511 -0.0191838 -7.90389e-21)
(0.902819 -0.637928 3.21767e-21)
(0.899458 0.639117 -2.27854e-20)
(0.554876 -0.0375587 -6.79209e-20)
(1.14081 -0.00417315 4.00775e-21)
(1.07691 -0.0824361 4.86161e-21)
(1.11152 0.0512879 -1.40716e-21)
(1.10828 0.122415 1.68871e-21)
(1.13556 -0.123662 0)
(0.918725 0.104152 1.54991e-20)
(0.888964 0.45785 0)
(1.21439 0.101222 1.4396e-22)
(1.17071 0.112364 -3.05824e-21)
(0.757245 0.263838 0)
(0.528048 0.109855 1.1182e-19)
(0.890349 0.707046 -1.02088e-21)
(1.07756 0.285843 -1.89339e-20)
(1.03877 -0.00918966 8.89128e-21)
(0.413564 0.484203 0)
(1.30299 -0.474153 0)
(0.685781 -0.0155684 5.41683e-21)
(1.26372 0.499492 0)
(-0.0186478 0.0494323 -4.58176e-20)
(1.29033 -0.414143 -1.81681e-20)
(1.16227 0.503779 0)
(0.452224 0.209499 1.64137e-19)
(1.12691 0.313521 -1.25747e-19)
(0.817319 -0.644851 -2.31807e-20)
(1.12605 0.0605484 -3.65616e-21)
(0.923123 0.149699 8.56619e-20)
(1.09083 0.167643 4.36049e-20)
(1.06858 0.699396 -8.14857e-22)
(0.904884 -0.442141 5.99576e-20)
(1.4182 0.172259 4.42776e-20)
(1.13047 0.00642459 3.10123e-22)
(0.000725521 -0.0690178 9.99431e-20)
(1.08625 -0.704961 3.3952e-20)
(0.873616 -0.723498 4.61255e-20)
(0.252086 -0.340426 0)
(0.973088 -0.149398 6.65196e-20)
(0.361045 0.299943 -4.26282e-19)
(-0.093214 -0.0744255 3.27268e-20)
(0.252292 0.0337189 2.41249e-20)
(0.68426 -0.0607561 -7.97682e-20)
(1.07631 0.523898 0)
(0.991976 0.218299 7.35125e-20)
(1.07935 0.026931 2.2736e-21)
(0.907052 0.436755 -8.61704e-20)
(0.784697 -0.728137 -7.03977e-21)
(0.924007 0.0202937 -4.66296e-20)
(0.975035 0.484155 0)
(1.14243 0.125516 -2.51449e-21)
(1.38655 -0.514787 1.49836e-20)
(1.23539 -0.341259 9.87389e-21)
(-0.389819 0.129329 3.771e-20)
(0.194189 -0.00499082 -1.76233e-20)
(0.974041 -0.119544 -5.51948e-20)
(0.35043 0.518737 0)
(0.915435 0.0131606 3.71537e-20)
(1.15569 0.632494 8.49804e-20)
(-0.0297648 -0.145803 1.69858e-19)
(-0.0889817 0.00667752 -2.67574e-20)
(-0.0994634 -0.150765 4.55492e-20)
(1.09414 0.0141268 -2.86228e-21)
(1.13754 -0.463158 0)
(1.07049 -0.737875 -3.40328e-20)
(0.696557 0.343464 0)
(0.0837893 -0.154412 -1.24143e-19)
(1.06718 -0.0144383 2.93561e-21)
(-0.0417935 -0.141039 -3.2585e-20)
(1.04993 0.0544474 -1.18468e-20)
(0.112505 0.0269602 5.94333e-20)
(0.85663 0.124459 0)
(1.37616 0.0231436 5.73886e-20)
(0.0543042 0.0352302 -2.73908e-20)
(-0.373786 0.0252416 -4.47647e-20)
(-0.268102 0.0242111 0)
(0.077526 -0.0192953 0)
(1.33533 0.0262071 -1.79085e-20)
(0.383182 -0.0125093 1.64973e-19)
(1.27208 -0.728997 -3.11234e-20)
(0.909847 -0.0307988 3.72858e-20)
(1.07184 0.246969 -2.58119e-20)
(0.369274 -0.563383 1.33399e-19)
(1.5425 0.270376 -3.71546e-20)
(0.0784937 -0.101309 3.88339e-20)
(0.207226 0.297244 1.9036e-19)
(0.0972832 -0.0602978 -1.452e-19)
(0.944855 -0.496515 -4.07736e-20)
(1.45202 0.381522 3.82062e-20)
(0.568885 -0.680367 4.54243e-20)
(1.10774 -0.0749795 -5.10774e-21)
(0.289658 -0.056703 6.7764e-20)
(1.18689 0.287444 -5.06288e-20)
(0.65917 0.633787 -3.88736e-20)
(1.34431 -0.625389 0)
(1.41738 0.514346 3.53747e-20)
(1.05622 -0.531211 -1.2656e-20)
(1.38611 0.601162 -1.08082e-19)
(1.16365 0.0580814 0)
(-0.0520523 0.0674701 0)
(1.24747 0.723745 0)
(1.05605 0.00588744 -5.4359e-21)
(0.742053 -0.307125 -1.97638e-19)
(0.475486 -0.090395 0)
(-0.0595476 0.0635877 -2.74221e-20)
(1.02368 -0.245882 8.8334e-20)
(-0.415955 0.131501 0)
(0.320784 0.0175123 1.19059e-20)
(1.12318 0.0457731 0)
(1.41576 0.268249 0)
(1.15618 0.0610307 3.91483e-21)
(0.361469 -0.299527 0)
(1.01685 0.148307 3.35964e-20)
(1.30961 0.280651 0)
(-0.124768 0.0203587 -5.77267e-22)
(0.812669 -0.401927 0)
(1.51051 0.330474 -5.67139e-20)
(1.23832 0.362494 -3.24209e-21)
(0.837114 0.639089 -9.33866e-21)
(1.01382 0.156622 -8.11325e-20)
(0.971433 -0.207447 -4.36057e-20)
(1.44979 0.286687 3.32926e-20)
(1.01335 0.0872202 0)
(0.563583 -0.0784814 0)
)
;

boundaryField
{
    FrontBack
    {
        type            empty;
    }
    Top
    {
        type            noSlip;
    }
    In
    {
        type            fixedValue;
        value           uniform (1 0 0);
    }
    Bottom
    {
        type            noSlip;
    }
    Out
    {
        type            zeroGradient;
    }
    circle
    {
        type            noSlip;
    }
}


// ************************************************************************* //
