/*--------------------------------*- C++ -*----------------------------------*\
| =========                 |                                                 |
| \\      /  F ield         | OpenFOAM: The Open Source CFD Toolbox           |
|  \\    /   O peration     | Version:  2412                                  |
|   \\  /    A nd           | Website:  www.openfoam.com                      |
|    \\/     M anipulation  |                                                 |
\*---------------------------------------------------------------------------*/
FoamFile
{
    version     2.0;
    format      ascii;
    arch        "LSB;label=32;scalar=64";
    class       volScalarField;
    location    "25";
    object      p;
}
// * * * * * * * * * * * * * * * * * * * * * * * * * * * * * * * * * * * * * //

dimensions      [0 2 -2 0 0 0 0];

internalField   nonuniform List<scalar> 
808
(
0.116955
0.0186291
0.0445805
0.116788
-0.23075
0.0188441
0.00891053
0.0246626
-0.127308
-0.0253849
0.0377862
-0.144567
0.0214814
0.0143343
-0.215867
0.0188511
-0.220375
0.0173583
0.0470964
0.00984912
0.0489149
0.394255
0.0822409
-0.00574226
0.47328
-0.170589
-0.0618361
0.00853621
0.017244
0.0229353
0.0147264
0.0190244
0.0256504
0.0143961
-0.0820405
0.635706
0.017083
0.0302072
0.0192405
0.0205429
-0.0506929
-0.0627204
0.0417654
0.0273411
-0.217262
0.0996419
0.0255444
0.00842566
0.015852
-0.166713
0.0151731
0.0147525
0.0527002
0.00947499
-0.0605377
0.0131875
0.0106032
0.036903
-0.0225342
0.00844973
-0.312743
0.000196236
0.0302617
-0.171479
0.0311572
0.0526535
-0.268501
0.0250191
0.0429383
-0.281341
0.0227787
-0.316695
0.0190681
0.0217616
0.184897
0.0251929
-0.00205003
-0.0398548
0.014268
0.332828
-0.116611
0.0200974
0.0382343
0.27502
0.0303376
-0.0228914
-0.358051
-0.078984
0.0274326
-0.168959
0.0384282
-0.103654
0.270505
0.171596
0.0483371
-0.238648
0.0213954
-0.140931
-0.108703
-0.22128
0.0188037
0.00445867
0.0388185
-0.0151519
-0.0744881
0.0679205
-0.263133
-0.00172076
0.0109433
0.0272093
-0.0561947
0.34982
0.0179561
0.0166145
0.0246888
0.460429
0.0150585
-0.268403
0.0232371
0.0556862
-0.252955
0.04135
0.0136199
0.0565562
0.125558
-0.0252603
0.104803
-0.00874151
0.0294717
0.0764422
-0.29812
0.0207416
-0.0447206
0.142391
0.0230597
0.0124805
0.0855195
0.00998011
0.020757
0.0107488
-0.23703
0.0453947
0.0718648
0.0209912
-0.0070684
0.0522015
0.0945411
0.15671
-0.150927
0.0162061
0.0190409
0.361959
0.0298694
0.550833
-0.250538
-0.0768431
0.0200564
-0.221732
0.0770666
-0.100787
-0.299405
-0.242479
-0.301609
0.0188502
0.0686611
0.0251447
0.0215104
-0.316402
0.0138015
0.0312924
0.038853
0.174141
0.0690528
0.121263
0.0232069
0.0690229
0.08023
-0.151796
0.0246512
-0.343662
0.0289148
-0.109413
0.0178965
0.264826
-0.252507
0.128017
0.0253218
-0.14084
0.0318505
-0.0973683
-0.237357
-0.0617064
0.0231155
0.0801105
0.0185937
-0.219105
0.0234886
0.0235013
0.00457396
0.0938275
0.0647769
0.0216469
0.027433
-0.319921
0.389285
-0.221572
-0.292273
0.00896607
0.0242075
0.0187708
0.0019398
-0.392996
-0.278608
0.0219848
0.00544783
0.0195994
-0.32581
-0.00833565
-0.00425375
0.0223343
0.017471
-0.0567835
0.0256138
0.024908
0.00508624
0.0279522
0.136614
-0.277647
0.00513878
0.0158922
0.129644
0.0164147
0.0178166
0.0136417
-0.103775
0.0132079
0.00910154
-8.13189e-05
-0.00691265
0.0162728
0.00117249
0.000814018
0.00266332
0.00512867
0.00154717
-0.000235983
0.00737224
0.00374505
-0.00151542
0.065254
-0.30752
0.00449164
0.0243717
-0.0805856
0.0108915
0.0057722
0.0235774
0.000200949
0.0205688
0.142221
0.0138193
0.0160212
0.0100304
-0.0687818
0.0341167
0.0136452
-0.00633646
0.0310257
-0.00161523
0.0696081
-0.00119178
-0.390668
0.293371
0.0292716
-0.0947884
0.0161557
0.0247742
0.0184881
-0.192611
0.277271
0.0173371
0.0192793
-0.0185013
0.0843895
-0.252956
0.0231573
0.0812654
-0.0211995
0.0311607
0.0886113
0.0237464
0.0316768
-0.00133738
0.00148444
0.0245128
0.0266665
0.0318741
0.0702265
0.0275297
0.0355997
-0.00176028
0.0231672
-0.0131548
0.0222728
-0.498049
-0.0867421
0.0657812
-0.0526694
-0.173247
-0.292265
0.0426437
0.0229472
-0.294368
0.127305
0.157732
0.0214474
0.0219527
0.0176684
0.00496255
-0.217781
0.0388286
-0.00174352
0.0335061
0.0482926
0.0256237
0.0337648
0.00261326
-0.00466151
0.0360587
-0.264117
0.0359764
0.0274245
-0.0702465
-0.061758
0.0148944
0.248024
0.0515445
-0.154308
0.556529
0.0481904
0.0051212
0.030923
-0.0960903
-0.0294302
-3.59257e-05
0.0359711
0.000987463
0.0344579
-0.0580751
-0.204007
-0.00325503
0.119295
-0.0359409
-0.252695
-0.299603
-0.280376
-0.299827
0.0223566
0.0238457
0.0195182
0.0198058
-0.0366097
0.0103424
0.0283329
0.00296317
-0.492736
0.0349622
0.0196918
0.0295614
-0.0944233
0.0506994
0.0225623
0.111749
-0.346085
0.0252585
-0.0249701
0.00999785
0.0991014
-0.271565
0.0123269
-0.256457
-0.00793333
0.0828409
0.0340598
0.0143818
0.0303806
-0.131409
-0.336488
0.00493634
0.0143388
-0.0989901
0.042239
-0.00128084
0.0163455
-0.00654498
-0.0097821
-0.223361
0.0349239
0.00589076
0.0225757
-0.191249
-0.262686
0.0833745
-0.00664254
-0.0655153
-0.0347575
0.42886
-0.221512
0.00507282
-0.0860874
0.00875592
0.021677
0.027624
0.083922
-0.00647285
-0.041392
-0.0494495
-0.00681543
-0.00489499
-0.00679683
-0.0122492
-0.0120847
0.0217326
0.113544
0.0646272
0.0176526
0.0122224
0.0423521
-0.03658
0.0296465
-0.368518
0.0952526
0.0495562
0.0171825
-0.199407
-0.27546
-0.0178694
-0.0828205
-0.0339127
0.0283522
-0.34624
-0.231686
0.257451
-0.313399
-0.443577
-0.105673
-0.125711
-0.0403678
-0.252117
0.359415
-0.0569829
-0.280311
0.00893797
0.0594642
0.577476
0.0126764
0.0109267
0.0696774
-0.051138
-0.00995193
-0.372943
-0.219259
0.0258316
0.062125
0.0424244
-0.255936
-0.30728
-0.179243
0.021583
0.0500734
0.103963
-0.0140634
-0.0473698
0.0899493
0.0263138
0.0181515
-0.155848
-0.243954
0.0523208
-0.0458718
0.0161099
0.0192047
0.0784853
-0.039932
0.0379508
-0.454556
0.458304
-0.192913
-0.266911
-0.0193589
0.00866177
-0.257511
-0.246487
0.119531
-0.32485
-0.0955138
0.875275
0.0165505
-0.348057
0.00417698
-0.0520574
-0.0269804
-0.445923
-0.254114
-0.302649
0.0114416
-0.112887
-0.352257
-0.00391797
-0.0189803
0.128844
-0.315694
0.0422411
-0.489981
-0.268855
-0.327237
-0.040546
0.0164369
0.00249952
0.117876
0.127996
-0.0230334
-0.267403
0.311114
0.0106119
0.00546873
-0.428696
-0.487015
-0.330719
-0.031504
-0.340188
0.0063468
0.0904788
0.0619669
-0.14074
-0.226409
0.0142264
-0.28797
-0.223644
0.00738193
-0.00064567
-0.344725
-0.0030982
0.0486771
-0.372098
-0.305506
-0.081
0.121082
0.0245409
-0.317989
-0.246317
-0.219605
-0.081477
0.0575404
0.115251
0.00651141
-0.272235
-0.240095
0.120573
0.0252281
-0.0929379
0.0360354
0.0483509
-0.276112
0.0233804
-0.262412
0.0573678
-0.29658
0.0903927
-0.00149111
-0.306043
-0.394754
0.00132011
-0.461172
-0.450384
0.0487453
-0.0341584
-0.244839
0.0186368
-0.276696
0.0188511
0.104368
0.0633104
-0.317871
0.0206194
0.117687
-0.398915
0.0232813
-0.275074
0.0206371
-0.306997
-0.449481
0.0993045
0.297701
0.453496
0.00108315
0.00127742
-0.000598014
-0.333551
0.661977
0.0222063
-0.166074
0.0209868
-0.0650365
0.0801488
0.50788
-0.311646
-0.044798
-0.0346068
0.0292847
0.0201614
-0.391042
-0.257007
-0.275195
-0.263501
-0.269266
0.00359262
-0.350424
-0.0303861
-0.215918
-0.265704
0.538096
0.612929
-0.232089
0.113306
-0.249673
-0.0198332
-0.0568367
0.434678
-0.0368159
-0.309722
-0.050975
-0.450996
-0.0093564
-0.154958
0.0140066
-0.258241
-0.215132
-0.000308762
0.00171042
-0.315518
0.452094
0.695054
-0.320767
-0.250129
-0.319998
-0.053942
-0.250794
-0.244495
-0.14395
-0.31235
0.77662
-0.284636
0.752422
-0.405028
0.332786
-0.305908
0.0130333
0.202242
-0.440277
0.22551
-0.220869
-0.257051
-0.2854
0.889042
-0.255532
0.212647
0.14927
0.651273
0.125669
-0.269604
-0.216973
-0.127113
0.0126339
0.119665
0.526145
0.0113655
-0.00497535
-0.245004
0.151951
-0.121109
-0.203881
0.0320267
-0.255807
-0.155156
-0.11535
-0.361656
0.0121007
0.106033
-0.00225503
0.0947029
0.10917
-0.2749
-0.308804
-0.0338045
0.0283233
-0.410833
-0.454302
0.20805
0.218551
0.0917843
0.692373
-0.0795064
-0.341554
-0.333689
-0.245423
-0.0592399
0.114305
0.782233
-0.394174
0.378827
-0.00483769
-0.365988
0.176924
-0.0379455
0.388706
-0.118062
0.024601
-0.325044
-0.0766156
0.196437
0.824459
0.340465
0.781104
-0.309491
-0.237769
-0.410189
0.197468
0.291414
0.0760314
0.407974
0.13766
0.510784
0.303944
-0.0529594
-0.186554
0.024287
-0.281861
0.899462
0.420083
0.674139
0.528268
-0.222908
-0.313095
-0.247396
-0.277622
0.061182
-0.399638
0.103735
0.618938
-0.34567
0.00845821
-0.279915
0.207629
-0.272371
-0.309559
-0.125638
-0.227812
-0.268921
-0.272454
-0.333469
-0.0938105
-0.410754
-0.131626
-0.350442
0.172144
0.662036
-0.172978
-0.317504
0.847559
-0.315226
0.289378
-0.189975
0.391908
0.0904398
-0.309465
-0.339598
0.470997
-0.27288
-0.273029
0.190659
-0.230785
-0.0102977
-0.24569
-0.0794251
0.0260964
0.578245
0.793972
-0.245404
0.229513
-0.270732
0.838186
-0.0037817
-0.261761
-0.012054
0.774444
0.230023
-0.269471
-0.240866
0.460388
-0.16843
0.0682906
0.379889
0.276152
0.300516
-0.205057
-0.256689
0.70301
)
;

boundaryField
{
    FrontBack
    {
        type            empty;
    }
    Top
    {
        type            zeroGradient;
    }
    In
    {
        type            zeroGradient;
    }
    Bottom
    {
        type            zeroGradient;
    }
    Out
    {
        type            fixedValue;
        value           uniform 0;
    }
    circle
    {
        type            zeroGradient;
    }
}


// ************************************************************************* //
