/*--------------------------------*- C++ -*----------------------------------*\
| =========                 |                                                 |
| \\      /  F ield         | OpenFOAM: The Open Source CFD Toolbox           |
|  \\    /   O peration     | Version:  2412                                  |
|   \\  /    A nd           | Website:  www.openfoam.com                      |
|    \\/     M anipulation  |                                                 |
\*---------------------------------------------------------------------------*/
FoamFile
{
    version     2.0;
    format      ascii;
    arch        "LSB;label=32;scalar=64";
    class       surfaceScalarField;
    location    "25";
    object      phi;
}
// * * * * * * * * * * * * * * * * * * * * * * * * * * * * * * * * * * * * * //

dimensions      [0 3 -1 0 0 0 0];

oriented        oriented;

internalField   nonuniform List<scalar> 
1171
(
-0.945638
0.945638
0.775755
-1.08385
0.308099
-0.156599
-0.793206
0.949805
0.0543617
-0.0693526
-0.276966
0.346319
-0.775755
0.0838498
0.691906
0.919524
-0.20709
-0.712434
0.830322
-1.05496
0.224643
-0.354593
-0.0401387
0.394732
-0.00338479
0.601989
-0.598604
-0.625815
0.999694
-0.373879
-0.423946
1.00926
-0.178938
0.221216
0.103321
-0.324537
0.971415
0.0378445
0.273821
-0.0526045
1.0041
-0.0326822
0.736042
-0.892641
-0.784821
0.612243
0.172578
0.196537
-0.822351
0.556674
-0.913473
0.356799
-1.08087
0.671826
0.409043
-0.643713
0.640328
0.0311466
-0.250242
0.219095
0.0409605
-0.644667
0.603706
0.465752
-0.505891
-0.839607
0.89089
-0.0512828
0.995663
0.00843423
0.914468
-1.07372
0.159249
1.01509
-0.0194302
-0.696353
-0.0884684
1.27668
-0.866794
-0.409886
0.175486
-0.0777
-0.407812
0.485512
-0.274096
0.18657
0.0875256
-0.603309
-0.480546
0.98521
-0.0707419
-0.0306623
0.887281
-0.856618
0.506467
0.770213
0.524289
0.0201947
0.445558
-0.791046
-0.107244
0.89829
0.588206
0.245947
-0.834153
0.042805
0.619126
-0.661931
-0.51022
-0.570649
-0.384504
-0.689213
0.0249106
0.247859
-0.272769
-0.958973
-0.0362101
0.995183
0.371657
0.0230743
0.841697
0.0778271
-0.60178
-0.0419328
0.0355866
-0.826633
0.10837
0.953291
-1.06166
-0.406828
0.0314895
0.375339
-0.718738
-0.240235
-0.773771
0.882141
0.728903
0.270791
-0.57841
1.00319
-0.82024
-0.182952
-0.153855
0.069527
0.0843284
-0.458412
-0.0474788
-0.314526
1.04343
-0.000842145
0.425516
-0.424674
-0.529753
1.11796
0.71332
-0.820564
0.388295
-0.0647888
-0.323506
0.768773
-0.768773
-0.903632
0.0425751
-0.319542
-0.699241
0.668579
-0.0365462
-0.146181
0.182727
0.887976
-0.00069497
1.05804
-0.812092
0.224325
-0.321514
0.0971894
0.957275
-0.115578
-0.67203
-0.0586866
0.730717
0.149476
-0.23063
0.0811539
0.798031
-1.00512
-0.439994
0.309348
0.130646
0.686804
-0.645843
0.875612
-0.398627
-0.476984
0.491108
-0.694217
0.0357094
0.658508
0.123123
0.667253
0.0408719
-0.708125
0.138759
-0.0961835
-0.510429
0.103601
0.037593
-0.905605
0.868012
-0.541346
-0.758312
0.0619597
0.498072
-0.052514
0.275793
-0.833262
0.55747
0.424529
0.575471
0.599493
-0.563906
-0.387453
-0.00249689
0.389949
0.536254
0.232519
-0.683347
0.726152
0.0902596
0.88188
0.00779271
-0.679823
-0.76508
0.802673
0.608566
0.118778
0.33295
-0.451728
-0.154807
0.567077
0.0520492
0.832252
-0.894242
0.0619892
0.663532
0.33966
-0.433502
0.701697
-0.582918
0.408847
0.147827
-0.0552065
-0.684522
-0.251655
0.936177
-0.118416
-0.650357
-0.613874
0.362927
0.250948
0.662854
-0.655061
0.309773
1.04386
0.0141755
-0.76508
-0.170893
0.0170372
0.71332
0.790658
-0.790658
0.843645
-0.829752
-0.0138932
-0.453981
0.878509
-0.193822
-0.316607
0.763306
-0.67083
-0.0924767
-0.952482
0.267959
0.109879
-0.71166
0.820564
-0.975371
-0.206006
0.18044
0.0255663
0.107897
-1.00712
0.899222
0.540602
-0.0163131
-0.288986
0.595012
-0.306026
-0.660292
0.768188
-0.157386
0.665046
-0.826522
0.161477
1.10638
-0.673099
-0.433285
0.735451
-0.0675802
-0.00681421
0.0050576
0.00175661
-0.800245
-0.783476
-0.00973001
-0.699241
0.576961
-0.545471
0.240179
0.604979
-0.845157
0.778973
0.166665
0.490769
0.509231
-0.108216
-0.700879
0.809095
0.937735
-0.105483
-0.735451
0.802673
0.181455
-0.431697
-0.0184123
0.00299842
0.0154139
0.677137
-0.431361
-0.245777
0.691906
-0.0582249
-0.11843
0.569792
0.107346
-0.0162444
0.00171269
0.0145317
0.00429207
-0.0111063
0.151823
-0.216611
-0.948043
0.0367444
-0.14537
-0.0541838
0.138564
0.803432
0.742209
-0.166738
0.548164
-0.307986
-0.163998
0.388322
0.646116
0.0457894
0.229676
-1.05943
-0.975371
0.319143
0.668579
-0.164823
0.0186421
-0.840177
1.02607
-0.185896
0.482861
-0.107522
0.800432
0.305783
0.297485
-0.0236643
-0.680706
0.680706
0.228481
0.669809
-0.0226285
0.448145
0.462884
0.0208191
-0.0392314
0.542047
-0.00144442
-0.660292
0.570569
0.192738
-0.00687263
0.0119302
-0.646116
0.155742
0.87033
0.0312691
-0.717467
0.686198
0.760897
-0.821513
0.0606153
-0.778973
-0.0378799
0.0526905
-0.0148105
0.086527
-0.11647
-0.102604
0.219075
-0.00854315
-0.00770127
0.757651
-0.726382
0.974601
-0.0247959
-0.307277
-0.611888
0.919165
-0.000817881
0.000817881
0.177943
0.489849
0.444301
-0.93415
-0.191594
-0.554453
0.746047
-0.0183281
0.201055
0.381304
-0.231828
1.06383
-0.573985
0.857533
0.932738
-0.488437
0.187483
0.768188
0.58925
0.252275
0.638615
-0.650357
0.319294
-0.000274772
0.0114419
-0.0111671
0.92207
0.108514
-1.03058
-0.556568
0.537138
0.546019
-0.556568
-0.58925
0.537138
0.00345636
1.00757
-0.0329712
-0.536254
0.449316
0.0869381
0.528896
0.67667
-1.20557
0.501886
0.561948
0.711258
0.516063
-1.22732
0.493419
0.439319
0.449316
-0.527217
-0.516794
-0.649606
-0.537955
-0.221544
-0.00732272
0.00732272
0.58959
0.547136
-1.08509
0.688056
-0.355106
-1.03453
0.361431
-0.700943
0.460708
-0.0667144
-0.896856
0.96357
0.453223
-0.127964
1.05003
-1.08105
-1.04503
0.172804
0.872224
0.395187
-0.232616
-0.162571
0.753701
-0.824443
1.02475
-0.940724
-0.0840231
-0.114207
-0.780035
-0.208078
0.863724
-0.655646
-1.11596
1.00176
-0.544048
0.558641
-0.0145923
-0.660132
-0.0936749
0.753807
0.00425411
-0.00507199
0.423619
0.0563007
-0.942476
0.886175
-0.816426
0.70821
1.05505
0.172265
-1.22731
0.0100175
-0.0134769
0.403426
-0.361231
0.0397173
0.900835
-0.967549
-0.684928
-0.817681
0.0376465
-0.133802
-0.936087
-0.00463774
0.382572
0.165593
0.0829691
0.312218
-0.660987
0.567312
0.476984
-1.02482
-0.943698
0.063874
0.136017
0.546583
-0.6826
0.0274836
-0.548911
0.579251
0.181646
0.114404
0.935629
1.17456
0.934042
-0.93868
0.0473978
-0.0473978
-0.0760514
-0.0934511
-0.139165
0.334415
-0.0152712
0.23926
0.963113
0.00254867
-0.0110918
0.657381
0.342619
0.796551
-0.603309
-0.766302
-0.574086
-0.485855
0.485855
-0.208372
-0.111169
0.676701
-0.911744
0.235042
-0.469476
-0.537982
0.328167
-1.01738
-0.920456
0.836433
-0.609969
0.647616
0.66996
0.181067
-0.851027
-0.588679
-0.18426
0.848224
-0.663964
-0.042657
0.00386732
0.00247828
-0.0063456
-0.127681
0.0342298
1.00487
0.674889
-0.303895
-0.370994
0.512318
0.75074
-0.522259
0.0139332
-0.288029
-0.0640578
0.820415
-0.756357
-0.34742
-0.0902741
0.1456
-1.07045
0.0398621
-0.730677
0.0977269
0.729194
-0.826921
-0.864526
0.133849
0.70128
-0.791554
0.235527
-0.351998
-0.567919
-0.0207595
0.368289
0.714026
-0.0123292
-0.00137615
0.00137615
-0.00561002
0.0392886
-0.0395634
-0.0164562
0.0190049
-0.402326
0.333523
0.78051
-0.807021
0.026511
-0.661921
0.759648
0.791492
-0.0902119
-0.675156
-0.189369
-1.11908
0.0208949
0.026503
-0.466384
-0.883234
-0.889019
0.479133
-0.104359
0.127501
-0.0231418
-0.2465
-0.219884
0.449299
0.711743
-0.0513028
-0.00288099
1.09121
0.544678
0.163931
-0.708608
-0.297769
0.0512687
-0.00558954
0.00945686
0.708104
-0.95976
0.00480596
-0.00480596
-0.742084
0.766722
-0.0246377
-0.2148
-0.135318
-0.697021
0.207381
0.601714
-0.056208
-0.881281
-0.417991
0.150344
0.267647
0.717
-0.690489
0.361283
0.253302
-0.614586
-0.17513
-0.691131
-0.135789
-0.197406
-0.21061
0.46853
-0.516009
0.193038
0.744134
-0.937172
0.491108
-0.165731
0.0613722
0.0843487
-0.294959
0.595243
-0.0958184
-0.499424
-0.287034
0.307423
-0.0203882
0.588811
0.0992449
0.100361
-0.313022
0.170859
0.142164
-0.152819
-0.0180734
-0.34518
0.0684705
-0.139966
0.0714953
0.897396
-0.147616
-0.0671832
0.55186
0.324172
-0.628067
0.399839
-0.399839
-0.197693
-0.385605
-0.211648
-0.385605
-0.748177
-0.85185
0.18102
-0.286782
0.738986
0.0497717
0.114267
0.599759
0.110011
0.120746
0.0090762
-0.129822
-0.136437
0.64218
-0.961806
0.349918
-0.0898513
0.0839785
0.00587285
-0.754176
-0.176087
-0.611376
0.775307
-0.517505
-0.103744
-0.191215
-0.338777
-0.0798978
0.0798978
0.0511001
0.00159035
0.141641
0.109427
-0.703078
0.0917011
-0.0784095
0.472653
0.527347
0.808571
0.0249364
0.00449993
-0.0294364
-0.299274
-0.582006
-0.55982
0.115355
-0.120098
0.0047429
-0.162306
-0.412425
-0.14665
0.748364
-0.585443
-0.168734
-0.0342167
0.0139465
0.280532
-0.52787
-0.199296
-0.195126
-0.0214859
-0.472611
0.434001
0.0386107
-0.105351
0.294665
-0.865314
-0.535547
0.611927
-0.882699
0.707569
0.434668
-0.0285921
0.0512432
-0.0226511
0.069159
-0.63594
-0.00771388
0.643654
-0.892763
0.652653
-0.728704
-0.125373
0.00785178
-0.00785178
-0.299089
0.404471
-0.00104492
0.00825507
0.0166814
0.596237
0.584232
-0.522243
0.0112535
0.00167606
-0.00305222
0.00551426
-0.00551426
-0.470603
0.569848
0.0152851
-0.0152851
-0.77982
-0.00914789
0.013402
-0.519713
0.611414
0.62831
-0.652947
0.0704059
-0.0704059
-0.026667
-0.0125644
0.00592987
-1.06908
0.635792
-0.493745
-0.00507199
0.606226
0.00761274
-0.613839
-0.713275
0.127832
-0.314404
-0.0138056
0.328209
-0.0296142
-0.0216886
-0.609158
-0.0267825
0.026503
0.00550263
-0.000696676
-0.00333332
0.00333332
-0.159562
0.231057
-0.476464
0.135547
0.661004
-0.108849
0.00385443
-0.00385443
0.508362
-0.215652
0.00866967
0.0186512
0.000442267
0.564626
-0.780278
-0.681086
0.613902
-0.0892733
0.332847
0.780231
-0.00561002
-0.0810486
0.0929789
-0.630529
0.547765
-0.325017
-0.107049
-0.0299063
-0.0260646
-0.0119563
0.461439
-0.0846741
-0.41475
0.706874
0.00180846
0.00349058
-0.00349058
-0.166776
-0.0501347
-0.570953
0.620724
-0.131196
0.510337
-0.180425
0.916467
0.776029
0.00550263
-0.781149
0.657598
0.0679244
-0.00568547
-0.062239
0.508551
0.10025
-0.0114387
0.063475
-0.0520363
0.00810538
-0.00810538
-0.735675
0.0230081
-0.0454576
0.0641088
-0.0855074
0.0855074
0.00167606
-0.00175559
0.742907
0.127424
-0.316044
-0.0963811
-0.518922
0.0337077
-0.0655917
0.0655917
-0.0561034
0.0823468
-0.0823468
0.0254264
-0.0254264
-0.357096
-0.0764056
0.23949
0.0698583
0.0494767
-0.738865
-0.0653559
0.160078
0.0213775
-0.237084
0.0820821
-0.0820821
-0.466404
-0.0496052
0.229251
-0.0101556
0.00216931
-0.663722
0.660265
-0.0247348
-0.0313686
0.0680078
-0.0805722
-0.0119409
-0.15845
0.170391
-0.149495
-0.202503
-0.0803668
0.0803668
0.0542771
-0.0542771
-0.0282148
-0.0937546
0.121969
-0.038658
-0.189845
-0.00490789
0.00185567
-0.105707
0.336764
-0.0256206
0.505707
0.00881744
0.00571429
-0.0496865
0.0496865
-0.736418
0.31577
-0.128287
-0.207257
-0.0233725
-0.0157746
0.0179439
0.192947
0.0261272
-0.00096627
0.00140854
0.0852642
0.0300909
0.0561676
0.10391
-0.0142805
0.0113995
-0.00131537
0.00472435
0.00540388
0.00192161
-0.00732549
-0.00181452
0.0106259
0.0274444
-0.0274444
0.0477004
-0.0433004
0.0433004
-0.190373
0.0104386
0.0298154
-0.0749142
0.017321
0.0781342
-0.0781342
0.231558
-0.232991
0.083496
-0.0663754
-0.166616
-0.0151809
0.0151809
0.407262
0.251246
-0.521094
-0.0808196
-0.0392784
0.542809
0.0293497
-0.0549214
-0.444379
0.108457
-0.152145
0.168785
-0.0166397
-0.0480433
0.0480433
0.888688
-0.590818
-0.00616331
0.00434879
-0.00560968
-0.287256
-0.00026469
0.00514063
-0.0467138
-0.629308
0.568527
-0.67387
0.0147751
0.12236
0.0159053
0.0242601
-0.157755
-0.332956
0.258041
-0.0550475
0.0268327
0.171703
0.135719
0.272968
0.262388
-0.246482
0.0047072
-0.115553
-0.221063
0.067311
-0.0111434
0.15836
-0.1341
-0.0687345
0.153999
-0.420568
0.118412
-0.101091
0.0580029
-0.472753
0.173926
0.17918
-0.247914
0.00965963
-0.179103
0.178838
0.00394793
0.150051
-0.0280153
0.0481416
0.46022
0.0122634
0.0145538
-0.00367822
0.0380441
-0.237703
-0.20231
0.590688
0.167844
0.0614064
0.0748977
-0.0635767
0.0279623
-0.0902012
-0.030466
0.165328
-0.150553
0.0025975
-0.00430764
-0.106814
-0.0290521
0.013997
0.251444
-0.00971082
-0.0526099
-0.310024
-0.01125
0.218897
0.137578
0.178192
0.0572694
0.0963488
0.0668205
0.529417
-0.00864086
0.105751
0.0416094
0.0672937
-0.108903
-0.269848
-0.194847
0.0282315
-0.221309
0.281793
)
;

boundaryField
{
    FrontBack
    {
        type            empty;
    }
    Top
    {
        type            calculated;
        value           uniform 0;
    }
    In
    {
        type            calculated;
        value           uniform -1;
    }
    Bottom
    {
        type            calculated;
        value           uniform 0;
    }
    Out
    {
        type            calculated;
        value           nonuniform List<scalar> 10(1.21314 1.05611 1.1664 1.05537 1.19273 0.977274 1.13673 1.00746 0.597532 0.597253);
    }
    circle
    {
        type            calculated;
        value           uniform 0;
    }
}


// ************************************************************************* //
