/*--------------------------------*- C++ -*----------------------------------*\
| =========                 |                                                 |
| \\      /  F ield         | OpenFOAM: The Open Source CFD Toolbox           |
|  \\    /   O peration     | Version:  2412                                  |
|   \\  /    A nd           | Website:  www.openfoam.com                      |
|    \\/     M anipulation  |                                                 |
\*---------------------------------------------------------------------------*/
FoamFile
{
    version     2.0;
    format      ascii;
    arch        "LSB;label=32;scalar=64";
    class       volVectorField;
    location    "25";
    object      U;
}
// * * * * * * * * * * * * * * * * * * * * * * * * * * * * * * * * * * * * * //

dimensions      [0 1 -1 0 0 0 0];

internalField   nonuniform List<vector> 
808
(
(0.895518 -0.0111 0)
(1.01821 -0.0369205 0)
(1.16155 -0.0942126 0)
(1.06775 0.0101158 -2.4677e-21)
(1.47947 -0.280407 0)
(0.956457 -0.0254835 0)
(1.12774 -0.0531187 -2.6163e-21)
(1.13657 -0.0463314 0)
(1.35095 -0.222317 2.50023e-20)
(1.22639 -0.086376 -6.74234e-21)
(1.2107 0.0252135 8.46201e-21)
(1.38287 -0.246732 0)
(0.996224 -0.0453474 0)
(0.742996 -0.0217497 0)
(0.914438 0.0815165 1.55287e-20)
(1.0833 -0.0344627 0)
(0.801389 0.0450882 -5.12623e-21)
(0.980715 -0.0309101 -8.1424e-23)
(1.197 -0.0302106 0)
(1.11554 -0.000491868 0)
(1.20325 0.0147838 -1.18084e-20)
(0.927788 0.122295 1.1503e-19)
(1.0754 0.0135572 -1.51118e-20)
(1.17597 -0.0395436 0)
(0.951125 0.181585 0)
(1.35456 0.0758633 -2.77478e-20)
(1.28136 -0.169196 7.91604e-21)
(0.963069 -0.0335009 -4.50623e-21)
(1.07197 -0.0251291 0)
(1.04666 0.0315393 -2.56503e-22)
(0.978047 -0.0213038 4.21803e-24)
(1.12252 -0.0178982 0)
(1.06223 0.042402 0)
(1.07353 -0.0270122 3.73904e-21)
(1.29682 -0.0713064 7.47068e-21)
(0.743218 -0.117558 1.12313e-19)
(0.873572 -0.0283834 -7.28961e-21)
(1.03592 0.0360381 1.35142e-21)
(1.19598 0.0562981 -2.45919e-21)
(1.10393 0.0385242 0)
(1.25319 -0.0670805 -1.37286e-20)
(1.27302 -0.129353 0)
(1.01051 -0.00350213 -8.91836e-21)
(1.13133 -0.0306248 9.1125e-21)
(1.27046 -0.041181 0)
(1.01119 0.0176206 -2.17388e-20)
(1.0026 0.0366284 2.25846e-21)
(1.25412 -0.244759 5.66663e-21)
(1.18008 0.0535634 -4.93309e-21)
(1.40401 -0.167528 -3.61194e-20)
(1.12282 -0.0484405 5.39269e-21)
(1.14681 -0.0678715 0)
(1.12074 0.00015441 7.96536e-21)
(1.16578 -0.0169874 0)
(1.31834 0.239824 2.91899e-21)
(1.07859 0.043574 -1.95535e-21)
(1.24162 0.00391526 0)
(1.25425 -0.0371558 2.97841e-21)
(1.23141 -0.0911701 7.2375e-21)
(1.14973 0.0257251 -1.9639e-22)
(-0.275961 0.245159 0)
(1.21571 -0.211838 -6.5044e-21)
(1.2299 -0.0465186 0)
(1.41102 -0.0756985 -2.64169e-20)
(1.15583 -0.0327076 -9.68861e-21)
(1.04229 -0.0284671 -8.77942e-21)
(1.35738 -0.0995512 2.78036e-20)
(0.653706 0.0192504 0)
(1.15018 -0.026524 0)
(1.45118 -0.348195 0)
(0.89721 0.0312445 -1.945e-22)
(1.26524 -0.133934 -4.19175e-20)
(1.01135 0.0526012 0)
(1.05866 -0.0391807 -3.58912e-21)
(1.12606 -0.335152 -5.69433e-20)
(1.11812 -0.0353741 -1.2808e-20)
(1.14558 0.015768 2.11749e-22)
(1.31448 0.497637 2.45032e-20)
(1.1035 -0.0422477 0)
(1.01129 0.279698 -1.91946e-19)
(1.36641 0.0420563 1.5441e-20)
(0.747274 0.0160304 0)
(0.845017 0.0295485 -1.07488e-20)
(0.969648 -0.110225 4.29536e-21)
(1.11596 -0.0416129 1.01488e-20)
(1.18764 0.00547284 1.16725e-21)
(1.30011 -0.231468 0)
(1.34224 0.289528 0)
(1.08918 -0.000180382 -1.28314e-20)
(1.39344 0.114038 3.15216e-20)
(1.0778 -0.0204805 1.22096e-20)
(1.31786 -0.115889 -1.39039e-21)
(0.964554 0.0249767 1.82062e-20)
(1.00402 -0.0233472 0)
(1.11498 0.017591 1.78901e-21)
(1.2928 -0.0300245 -6.70255e-20)
(0.754103 0.0188941 -2.62356e-21)
(1.38122 -0.0450505 0)
(1.31746 -0.0864159 0)
(1.42315 -0.067485 -4.44946e-20)
(1.10375 -0.046007 -3.93481e-21)
(1.12415 0.005251 -5.88131e-23)
(0.949725 0.0202932 1.06891e-20)
(1.18089 -0.0116702 -2.48946e-22)
(1.29432 0.00614777 -1.74084e-20)
(1.0032 0.00539126 1.487e-20)
(1.48674 -0.0655216 0)
(0.916258 0.132052 0)
(1.1014 0.0300005 4.03191e-21)
(1.20499 -0.216678 -7.20825e-21)
(1.26238 -0.00485145 9.07932e-21)
(1.04526 0.0448556 -1.26718e-19)
(1.16152 0.0367979 -1.49173e-21)
(1.23619 0.164054 2.67136e-21)
(0.794955 0.0207921 0)
(0.918255 -0.0492795 7.7094e-20)
(1.14798 0.0156938 -4.80356e-21)
(1.44544 -0.255554 -1.83438e-20)
(1.13739 -0.0456998 -7.19004e-21)
(0.929221 0.0167891 2.41634e-21)
(-0.409648 0.0244102 0)
(0.859853 -0.0179754 2.32003e-21)
(0.802998 0.0220174 0)
(1.0618 0.00233542 -9.04312e-23)
(1.01209 0.0289312 0)
(1.30652 0.324651 4.70204e-21)
(1.03587 -0.0522224 -3.13175e-20)
(1.40282 0.148479 -6.72089e-22)
(1.14778 -0.065115 0)
(1.09354 -0.0214861 0)
(0.656991 0.00732 0)
(1.14657 -0.0392888 -3.35808e-21)
(1.23996 -0.0506955 7.65445e-21)
(1.06639 0.111869 -3.61771e-20)
(0.850453 -0.0302072 0)
(1.10456 0.0204298 -1.14565e-21)
(1.03241 0.093882 4.7518e-21)
(1.14648 0.0387858 -1.77484e-21)
(0.997297 0.032962 3.36072e-21)
(1.12759 0.00381778 4.93043e-23)
(-0.0142674 0.0502391 0)
(1.09494 -0.0237889 -1.35548e-20)
(1.02242 -0.0670268 3.55404e-21)
(0.720555 0.0249123 -3.26043e-21)
(1.25805 0.174984 4.03854e-21)
(1.09324 0.203272 3.81347e-21)
(1.04642 0.0176702 1.66762e-20)
(0.991029 0.0261659 0)
(1.20659 -0.170443 -2.5463e-20)
(1.10193 0.138878 0)
(0.945647 0.032094 6.67163e-21)
(0.967181 0.278764 1.53352e-19)
(0.971747 0.0358381 0)
(0.818417 0.0953413 0)
(-0.0998454 0.0442275 -6.15593e-20)
(1.34157 0.142081 -9.99566e-21)
(0.683297 -0.0226074 0)
(1.45186 0.0559367 0)
(1.106 -0.0103259 0)
(1.35844 0.10959 1.17774e-20)
(-0.0489903 -0.110909 0)
(-0.0546595 0.0582657 2.89408e-20)
(1.0434 -0.0255916 8.74533e-20)
(1.00823 0.0377866 9.12217e-22)
(0.860253 -0.000420138 0)
(1.03985 -0.0516029 1.0305e-20)
(0.892095 0.0213542 0)
(0.780102 -0.0126934 -9.4502e-20)
(1.03866 0.0491623 8.24873e-21)
(1.15189 -0.0402579 3.11374e-21)
(1.0945 0.0086304 6.10418e-21)
(1.01353 0.0688127 -1.29122e-20)
(0.783869 0.205782 -3.79648e-21)
(1.13938 -0.349243 5.69614e-22)
(0.917122 -0.0243035 0)
(1.0685 0.000834363 -1.34388e-20)
(0.873783 0.0088571 -1.20463e-20)
(1.37486 -0.15965 2.111e-21)
(0.685617 0.0264152 0)
(1.06631 -0.139424 0)
(1.14136 -0.0499882 4.13094e-21)
(1.38481 0.221154 7.87628e-21)
(1.11566 0.0134958 4.34156e-21)
(1.03589 0.0175625 1.96027e-20)
(0.69056 0.109194 -7.13069e-20)
(0.813078 0.00368842 2.13766e-20)
(1.13792 -0.019135 5.18671e-21)
(1.36568 -0.0569279 -4.55916e-21)
(1.13007 -0.0381724 -5.64017e-21)
(1.30626 -0.0417771 3.90674e-21)
(-0.101314 0.0748263 4.44423e-20)
(1.26254 -0.0332923 0)
(0.623429 -0.0167367 0)
(1.06141 -0.0279555 -6.4587e-21)
(1.09959 0.00999238 5.90354e-21)
(0.0306647 0.0931509 0)
(0.882502 -0.0252194 4.54365e-22)
(1.1485 -0.0629343 -2.55904e-21)
(0.956281 0.0263288 1.07017e-21)
(1.07861 0.0404706 -8.08705e-21)
(1.00508 0.0196332 2.64706e-21)
(1.05586 -0.0527412 2.25738e-21)
(1.05918 0.0338014 0)
(0.363454 -0.0369318 0)
(1.04811 -0.0641546 0)
(1.12159 0.113406 -2.399e-20)
(-0.0515172 -0.106065 4.66608e-20)
(1.07982 0.0397395 -1.05609e-23)
(1.11956 -0.060474 0)
(0.75844 0.0218964 -6.34441e-21)
(1.10284 0.085803 1.70258e-21)
(-0.0023823 -0.0402138 -1.55785e-19)
(0.820801 0.0425634 -5.0286e-20)
(0.638556 -0.0176207 0)
(0.86965 0.0986137 0)
(0.931651 0.0339875 7.18706e-21)
(1.03735 -0.10665 6.03977e-21)
(1.2723 0.398506 -5.2871e-21)
(1.07849 0.0337316 6.23619e-23)
(1.23066 -0.0688674 -2.16987e-21)
(0.964342 0.131665 0)
(1.35519 0.424515 -2.82939e-20)
(0.664973 -0.0224983 0)
(0.796094 -0.0239313 -3.39287e-21)
(1.05916 -0.0335783 3.95509e-22)
(0.598091 0.014314 0)
(1.10037 -0.00636571 0)
(0.0650947 0.104455 -4.24463e-20)
(1.21372 -0.149887 -5.38922e-22)
(0.717898 -0.0158595 2.36396e-21)
(0.990099 -0.00275583 0)
(0.551472 -0.0176579 0)
(0.750344 -0.020177 -3.09144e-21)
(0.540726 -0.0175841 -4.41691e-22)
(1.35517 0.0387857 2.90687e-22)
(1.26479 -0.0121884 -9.15897e-22)
(0.693126 0.0199313 -1.85161e-21)
(1.1576 -0.0241324 1.85218e-22)
(1.13677 -0.0130529 -5.87615e-23)
(0.54425 0.016434 5.09458e-21)
(1.27268 -0.0313223 2.52786e-22)
(1.21136 -0.0627985 0)
(0.881836 0.0708868 0)
(0.486974 0.0193363 0)
(1.05467 -0.0246018 0)
(1.16737 0.00727038 -5.71957e-22)
(1.04912 -0.0350756 0)
(1.19116 -0.0421294 0)
(0.983194 -0.00124977 0)
(1.11596 0.139089 0)
(-0.0286233 -0.0549624 4.76184e-20)
(1.2018 0.0129187 3.79619e-22)
(1.07006 0.0462431 0)
(1.3011 -0.00667572 8.72341e-21)
(1.14825 0.0477911 1.13189e-21)
(1.12842 0.0414144 6.63543e-22)
(1.13394 -0.0906564 4.52946e-21)
(1.14305 -0.0165624 0)
(0.575471 -0.0166015 6.62667e-21)
(1.0513 0.044978 1.25584e-20)
(1.301 -0.135213 0)
(1.20277 0.0228163 -1.72056e-21)
(1.1965 0.0767894 2.42853e-21)
(0.701931 0.0590236 9.94612e-21)
(1.14338 0.0159173 5.75127e-21)
(1.17371 0.0350732 -5.81587e-21)
(1.11264 0.0909854 0)
(1.18207 0.143347 -1.26761e-20)
(1.21452 0.125671 2.94625e-22)
(0.6292 -0.0472637 1.37891e-20)
(0.803887 -0.112437 0)
(-0.0149897 -0.0231511 0)
(0.972439 0.111093 -1.83224e-20)
(1.13186 -0.0115577 0)
(1.3206 -0.106578 3.03479e-20)
(1.24341 0.0670477 2.56307e-22)
(1.14189 0.0535099 5.59102e-21)
(1.18759 0.068259 -2.30777e-21)
(1.35087 0.00404019 9.42983e-20)
(1.02078 -0.326342 5.74892e-20)
(1.11925 -0.0539448 1.30358e-22)
(0.894326 -0.117214 0)
(0.906951 0.0415699 0)
(0.90576 0.00306036 -2.81986e-20)
(1.34344 -0.159239 -6.49188e-20)
(1.12255 -0.0148472 0)
(0.573832 0.169131 1.91609e-20)
(0.447442 0.0887365 0)
(0.672982 -0.13569 6.13625e-21)
(0.758967 0.0714282 -2.2559e-20)
(0.816679 0.0250335 -4.59278e-21)
(1.15607 -0.0899309 0)
(1.31513 0.0968777 -2.98989e-22)
(1.20273 0.0555392 1.40045e-21)
(0.703192 -0.162696 -3.96946e-21)
(1.14708 -0.0234066 -4.05616e-21)
(0.685348 -0.180951 0)
(1.09252 0.0727374 0)
(1.14493 -0.136712 6.40332e-21)
(0.816977 -0.163135 -6.19872e-21)
(1.32082 0.117344 2.34045e-25)
(1.10781 -0.038966 -3.90576e-21)
(1.02086 -0.0136899 -1.27745e-22)
(1.08813 -0.0106675 0)
(0.42334 -0.140146 1.40643e-20)
(1.34439 0.0974727 -1.8978e-20)
(0.787261 -0.0904022 -1.64157e-20)
(0.0883357 -0.202217 -1.05185e-20)
(1.41731 -0.122009 2.41773e-20)
(0.895736 0.0430116 6.53832e-20)
(1.25354 -0.0909557 -6.65995e-21)
(1.08564 -0.0477115 5.14714e-22)
(-0.0661309 -0.0945778 -7.99444e-21)
(1.00018 -0.00663364 0)
(1.03282 -0.087062 -1.61737e-20)
(0.85171 -0.034859 8.05611e-21)
(1.11206 -0.0414287 4.26324e-21)
(0.859832 -0.11687 2.13923e-21)
(0.509961 -0.0230782 1.82682e-22)
(1.42014 -0.380798 -1.58029e-20)
(1.10265 0.0266556 0)
(1.00981 0.0197549 -1.16721e-22)
(1.13365 0.0287749 -2.74183e-21)
(1.204 0.00265102 0)
(0.6852 0.00497819 -9.91072e-21)
(1.11846 0.0400819 3.31885e-21)
(0.706589 -0.0533267 1.93139e-21)
(1.15099 -0.0531309 4.6514e-21)
(0.807538 -0.0802706 5.65108e-21)
(-0.0387521 -0.0423193 0)
(0.33103 -0.0827101 1.02117e-20)
(1.14308 0.00782282 0)
(1.01848 0.0140031 1.11962e-20)
(0.988099 0.133587 0)
(1.13399 -0.010698 3.54145e-21)
(1.01662 0.0274049 0)
(1.04254 -0.06136 0)
(1.38496 -0.10586 1.93928e-20)
(0.798017 -0.089438 0)
(1.10312 0.0548671 1.6004e-20)
(1.12845 -0.0210055 1.89514e-22)
(1.04669 0.0301657 3.29492e-21)
(1.32048 -0.0795944 -1.82781e-20)
(1.24357 0.127946 -2.59405e-21)
(1.29421 -0.122075 1.32149e-21)
(1.11126 0.0299957 0)
(1.15119 -0.0412561 0)
(1.08601 0.0564052 2.27722e-21)
(1.23807 -0.0424121 0)
(1.39094 0.220376 -2.13751e-20)
(0.827426 0.0115678 2.13447e-21)
(1.02689 0.0171375 2.35651e-20)
(1.24874 -0.00997413 -1.89916e-22)
(-0.0105425 -0.0146021 0)
(-0.0369805 -0.0853174 0)
(0.0330406 0.139298 -4.13515e-20)
(-0.0655879 -0.0867118 0)
(0.617443 0.133513 -2.16796e-21)
(1.17657 0.0440617 -1.93326e-21)
(1.1346 -0.0268039 -5.2016e-21)
(1.19009 -0.123837 -7.95303e-21)
(1.21373 -0.0650553 0)
(0.681583 -0.0185292 -1.97406e-21)
(1.1216 0.076912 0)
(1.10532 0.0276994 2.94118e-22)
(0.514606 -0.110019 0)
(0.687831 0.126914 -3.11081e-22)
(1.12538 0.0853218 0)
(1.17622 0.0347845 0)
(0.488124 0.0991442 2.80035e-20)
(0.471584 0.234651 -1.47924e-21)
(0.880618 0.128943 3.92824e-21)
(1.01031 0.0178165 -9.38658e-21)
(0.210441 -0.0680125 0)
(1.23384 -0.00478031 -1.3339e-20)
(1.25659 0.0359864 -3.86088e-21)
(1.19569 -0.0741229 2.25471e-21)
(0.486235 0.089249 1.20124e-20)
(-0.0552068 -0.0658881 -9.48535e-20)
(1.17895 0.0874544 0)
(-0.0311481 0.0324585 0)
(1.22841 0.0731807 -5.83774e-23)
(0.294419 0.114156 -1.29258e-20)
(1.16079 0.0323817 -1.20393e-20)
(1.10942 -0.0425244 0)
(1.15236 -0.00824 3.72962e-21)
(1.26413 -0.277231 2.43218e-20)
(0.567483 -0.042535 -1.00002e-20)
(1.14099 -0.0399408 -8.4414e-22)
(1.14867 -0.0577865 -2.49933e-22)
(0.384306 -0.359261 3.1857e-20)
(1.19418 -0.0504246 -1.71128e-20)
(1.14771 0.0256723 0)
(1.17133 0.100305 0)
(1.16888 -0.0889251 2.96331e-21)
(1.2288 0.044461 3.48918e-21)
(0.805782 -0.246938 -7.34611e-20)
(1.19241 -0.1148 -1.41172e-20)
(1.14809 0.0524593 3.02003e-21)
(0.517578 -0.000732978 1.34649e-20)
(0.263259 0.152485 -5.70486e-20)
(0.23168 -0.139248 4.47986e-20)
(1.17022 0.1884 -6.42736e-21)
(1.24054 -0.495494 5.78467e-21)
(1.3373 0.0248436 -9.6638e-21)
(1.19663 -0.0640986 -3.51172e-21)
(0.938865 -0.236622 9.49633e-20)
(-0.344177 -0.102232 0)
(1.21788 -0.00777941 -3.24506e-22)
(-0.185967 -0.0208949 -2.22764e-20)
(1.21399 0.106016 5.05175e-23)
(1.21379 -0.0989618 4.18523e-21)
(1.08632 0.0324899 0)
(0.431164 -0.0468132 0)
(1.16812 -0.0522153 0)
(1.3455 0.11368 -5.97917e-21)
(1.24641 -0.0294772 -1.85443e-20)
(1.14502 -0.0448937 -1.46951e-21)
(0.45224 0.0166542 0)
(0.602861 0.0107446 0)
(0.603913 -0.00293475 5.48664e-22)
(0.421431 -0.0134535 0)
(1.23387 0.0465664 0)
(1.02163 -0.0148765 2.46469e-20)
(0.176118 -0.190407 0)
(0.933026 0.0463312 0)
(1.12415 -0.00368626 0)
(1.17004 0.186 -1.16614e-20)
(1.2599 0.0105355 6.122e-21)
(0.966262 -0.0314636 7.51364e-21)
(1.30621 -0.400901 -1.12053e-19)
(0.507693 -0.238768 8.18593e-22)
(1.20387 0.105564 5.2961e-21)
(1.15874 0.065123 0)
(-0.171886 -0.111127 0)
(-0.223081 0.213241 0)
(1.16517 -0.038344 -3.95787e-21)
(1.32552 -0.287386 -2.67469e-20)
(1.34927 0.0308806 0)
(1.07472 0.0473501 -7.96932e-21)
(0.613233 -0.0379298 0)
(1.5114 -0.154788 7.5224e-20)
(0.410019 0.516334 1.23482e-19)
(0.305719 -0.0471206 0)
(1.11302 -0.277131 1.20289e-19)
(-0.00807266 0.110939 0)
(-0.13972 -0.430569 8.97359e-21)
(1.33311 0.0340941 0)
(-0.225505 0.158553 5.42364e-21)
(0.983618 -0.0500881 0)
(1.27094 -0.13667 -1.29668e-20)
(-0.145512 0.0181628 -7.81074e-21)
(1.12762 -0.0338476 8.93476e-22)
(1.13363 0.0795775 -8.52218e-21)
(0.576792 -0.521247 -9.21514e-20)
(1.13647 0.0680093 -1.68681e-21)
(1.19392 -0.124832 3.65768e-21)
(1.17686 0.250228 -2.52327e-20)
(1.16779 -0.251741 -1.67761e-21)
(1.1678 -0.0238608 -2.60493e-22)
(-0.0362088 0.103107 -6.56817e-20)
(0.0276009 0.0964963 -6.32553e-21)
(1.29914 0.170945 3.14728e-21)
(1.05787 -0.049119 0)
(0.55069 0.244502 -1.80415e-21)
(1.41209 -0.440649 8.50196e-20)
(0.960455 -0.0699899 -6.33998e-20)
(1.41583 0.168477 6.28707e-20)
(1.08212 -0.0343174 4.12443e-21)
(1.15567 0.0323709 1.40668e-20)
(1.06162 -0.00759183 0)
(1.17678 -0.0297046 0)
(1.23566 -0.113907 2.05214e-21)
(1.08837 -0.0196006 -4.55022e-21)
(1.12591 -0.182761 2.19598e-21)
(1.10763 0.0611807 -5.14928e-21)
(1.40063 -0.0261126 -3.9916e-20)
(0.407696 0.0282563 0)
(1.13294 -0.0588281 1.23973e-20)
(1.30026 0.00887187 0)
(1.12573 0.0655202 -2.10955e-21)
(1.14604 0.0251744 0)
(1.04118 -0.0090565 1.30179e-20)
(1.24118 0.0419248 1.19838e-20)
(1.01259 0.0543311 0)
(0.0588183 -0.0285734 1.6325e-19)
(0.883998 -0.215609 -7.44836e-20)
(1.23676 0.0155028 -2.52107e-20)
(-0.114721 -0.00785492 3.85182e-20)
(1.19198 0.020753 2.10777e-22)
(0.657964 0.115503 -2.5119e-21)
(-0.0941304 0.0104948 -4.01516e-20)
(-0.0206457 0.00109792 -2.46355e-20)
(1.02057 -0.0290448 0)
(-0.0323216 -0.0425271 0)
(1.16118 -0.00908228 0)
(0.112443 -0.108138 0)
(1.11602 -0.030156 0)
(0.147728 0.0303397 0)
(1.13477 0.0360531 0)
(1.13244 -0.0205251 0)
(1.41391 0.0895914 2.74442e-21)
(0.583605 -0.288775 -2.20801e-20)
(-0.122634 0.137122 0)
(1.16393 -0.0815097 6.59836e-20)
(1.29057 0.067729 2.21227e-21)
(1.20834 0.00742774 0)
(-0.0379541 -0.0440345 0)
(1.1656 0.0112527 8.64384e-22)
(1.17385 -0.012212 -1.03932e-21)
(1.16387 0.389185 0)
(0.28832 -0.0675817 6.50891e-20)
(1.12288 0.0628396 1.47289e-21)
(0.242685 -0.0517456 -5.50615e-20)
(-0.0589789 0.0396971 -2.77699e-20)
(-0.0362832 0.0485483 7.31492e-20)
(0.0797638 -0.198599 9.81243e-21)
(0.922539 0.11665 2.36361e-21)
(1.15765 0.0597078 -1.20132e-21)
(1.02444 -0.00759258 0)
(1.07022 -0.0680222 -2.17217e-20)
(1.2495 0.00545782 -6.58013e-21)
(-0.0115183 -0.0348125 9.61893e-20)
(0.979556 -0.0728619 -5.99187e-20)
(0.794002 0.186653 3.94096e-21)
(1.18235 0.109512 -4.28325e-22)
(0.0804704 -0.0307908 3.54868e-20)
(0.255395 -0.0371759 -5.00667e-20)
(0.440295 -0.0482845 -5.90362e-20)
(1.3018 0.10761 -7.24292e-21)
(-0.0554658 -0.0423978 0)
(1.08701 0.227526 -2.18625e-21)
(1.03657 -0.109991 2.4664e-20)
(1.13017 -0.0963328 -2.37815e-20)
(1.23946 0.0477971 0)
(1.51882 -0.216624 7.58335e-20)
(1.15398 0.0473839 -2.59899e-21)
(-0.0182338 -0.0478085 -3.34515e-20)
(0.244701 0.0901229 0)
(0.899348 0.0382949 -1.61506e-21)
(1.13423 0.016153 2.86072e-22)
(0.867465 -0.156743 2.79086e-20)
(1.16937 0.0102294 3.84677e-22)
(1.11925 0.0534265 0)
(1.16022 -0.166665 -1.54566e-20)
(-0.0928828 -0.033511 -6.90413e-20)
(1.2976 -0.0284566 1.82836e-20)
(1.09931 0.174683 -8.63038e-21)
(1.09652 0.0640206 5.88915e-21)
(-0.0450044 -0.0709281 1.60891e-20)
(-0.0188529 0.0238064 -5.55889e-20)
(0.661887 0.104724 0)
(0.650859 0.0587601 0)
(1.15231 0.104356 -2.00302e-20)
(1.0511 0.0695652 1.40755e-20)
(1.09712 0.0302839 0)
(0.554051 0.0879041 4.84619e-20)
(0.697805 0.0895598 -9.74413e-21)
(1.09872 0.111815 0)
(1.08581 0.0577869 0)
(1.25416 0.0155304 0)
(1.21997 -0.0169779 0)
(1.12534 0.0599908 3.92667e-21)
(-0.0426207 0.0421045 3.03276e-20)
(1.28718 0.0220492 4.9562e-21)
(1.42192 -0.177676 -8.61741e-20)
(1.16533 0.0154827 -6.04932e-21)
(0.0194404 0.179814 0)
(1.11666 -0.037247 0)
(0.61324 -0.0170711 -3.26962e-22)
(0.516323 0.00901388 -5.25769e-20)
(0.0648357 0.0368918 4.31162e-20)
(0.923632 0.0210157 1.95415e-22)
(0.75341 -0.274532 0)
(0.692149 -0.0905513 0)
(1.13162 -0.0321438 0)
(0.536882 0.510603 1.55222e-20)
(-0.0119434 0.0090494 -2.6904e-20)
(1.11454 0.0680622 -4.52692e-21)
(-0.0252278 -0.0705459 6.43617e-20)
(1.14204 -0.0518785 1.79692e-21)
(1.17026 0.316304 4.81274e-20)
(1.11164 -0.0851541 8.32162e-21)
(0.332367 0.0856266 8.58813e-20)
(1.12982 0.203099 1.5249e-21)
(0.977575 0.0262577 0)
(0.551262 0.268606 0)
(0.834077 0.0458386 5.52469e-21)
(-0.198093 0.106811 0)
(0.60666 0.0289817 2.2634e-21)
(0.609098 -0.421053 -3.22418e-21)
(0.229567 0.0489545 -1.02714e-19)
(1.12737 -0.226459 3.1645e-20)
(1.03557 0.363258 1.07041e-20)
(0.980268 0.0170184 0)
(1.23788 0.0195903 4.15006e-23)
(0.628113 0.0160495 0)
(0.985164 -0.020351 -6.78303e-22)
(0.455578 -0.0176942 0)
(0.712503 0.126619 0)
(1.00357 -0.0226268 -4.57505e-21)
(1.43044 0.184046 -1.10212e-20)
(1.11952 -0.0564059 2.20224e-21)
(0.526006 -0.495877 0)
(1.13528 -0.153652 2.08971e-21)
(0.802822 0.376502 7.32384e-20)
(-0.0416514 0.0199067 1.02849e-21)
(1.23521 -0.0176211 9.57732e-21)
(1.22621 0.0399194 -9.02186e-21)
(1.17786 -0.113161 6.66791e-22)
(0.795135 0.0100598 -4.86749e-21)
(0.0566977 0.0186191 3.2836e-20)
(-0.0180274 -0.0375306 -5.3555e-20)
(-0.185149 0.133605 0)
(-0.164763 0.240359 0)
(1.19295 -0.617216 3.28773e-20)
(1.15382 -0.0280167 2.54187e-22)
(0.896799 -0.467939 -4.4414e-20)
(1.10414 0.187109 3.80662e-21)
(1.35337 0.207449 2.86894e-20)
(0.598548 0.417287 0)
(0.24526 0.413066 -1.18889e-19)
(0.594069 0.478589 0)
(-0.00898279 0.130705 0)
(1.12644 -0.479242 0)
(-0.0420985 0.0127328 -4.42281e-23)
(1.1935 -0.0180609 0)
(0.745069 -0.0561287 -8.28714e-21)
(0.591786 0.689466 2.013e-20)
(1.27577 0.0504645 8.2676e-21)
(-0.0358 -0.104732 -1.14404e-19)
(0.548102 -0.142048 -1.31337e-20)
(0.44193 0.14275 -1.23872e-20)
(1.20889 0.0984992 0)
(1.35262 0.361545 2.81214e-20)
(1.21727 0.566668 2.37918e-21)
(0.146735 -0.0139575 -1.92183e-20)
(0.97147 0.13832 2.65604e-20)
(0.938899 -0.0336767 5.66008e-22)
(0.898494 0.0230489 -1.72014e-22)
(-0.000928687 -0.0374876 0)
(0.649603 -0.656865 -3.04098e-20)
(0.613267 0.198182 0)
(0.0836633 -0.0752472 0)
(-0.0427608 0.0437902 0)
(-0.00470595 -0.093631 -4.3757e-20)
(1.25064 -0.00421795 -1.10127e-20)
(-0.0345915 0.0426051 0)
(-0.0268442 0.0310216 0)
(1.4567 0.129552 -6.0476e-20)
(-0.0387557 -0.0905014 5.16572e-20)
(0.114377 0.232478 -1.02989e-19)
(0.369813 0.0166135 0)
(0.170465 -0.281023 8.19395e-20)
(1.10315 -0.239159 0)
(0.997554 -0.285172 0)
(0.00658445 -0.0907366 1.08532e-19)
(1.15283 0.0408541 -1.47235e-22)
(1.12138 0.343746 3.07501e-20)
(0.250969 0.0282235 4.18845e-20)
(0.405785 -0.521102 -3.71688e-20)
(1.2577 0.0963696 0)
(1.19674 0.201233 1.92395e-20)
(1.20385 0.216958 -2.36358e-20)
(0.102247 0.086259 -2.37457e-20)
(-0.0626401 -0.00547607 0)
(1.07029 -0.0577717 -1.94918e-20)
(1.10405 -0.22285 -1.55926e-20)
(0.584788 -0.407774 0)
(1.09767 -0.149407 -2.61592e-20)
(-0.0771656 0.220332 0)
(0.555141 0.0449799 0)
(1.38547 0.00424176 2.73133e-20)
(0.982042 0.0381619 3.81042e-22)
(1.07334 0.743518 -2.00625e-20)
(0.226465 -0.381693 1.32519e-19)
(1.10848 0.0475332 3.01595e-22)
(1.20994 0.0819712 -1.55684e-21)
(-0.0423957 0.0447192 2.6515e-20)
(0.782306 0.729856 3.26146e-20)
(1.35338 -0.365664 -1.36997e-20)
(-0.10842 0.165914 5.7602e-20)
(1.14218 0.0276849 0)
(0.190356 0.0931818 -6.80717e-21)
(0.904842 -0.639014 2.9081e-21)
(0.892849 0.638348 -1.40896e-20)
(0.565891 -0.0320017 -6.58359e-20)
(1.14681 -0.00516067 -4.797e-21)
(1.07523 -0.083396 7.10604e-21)
(1.17792 0.0445555 -3.71753e-23)
(1.1061 0.123127 5.83812e-21)
(1.13324 -0.126045 0)
(0.885252 0.113083 1.23169e-20)
(0.876692 0.456327 0)
(1.33215 0.0575354 3.72296e-21)
(1.16954 0.118053 1.92073e-21)
(0.739155 0.26245 0)
(0.506608 0.109201 9.79602e-20)
(0.889619 0.710318 -9.07854e-22)
(1.07434 0.291198 -2.36156e-20)
(1.0421 -0.0100159 1.24194e-20)
(0.414491 0.489117 0)
(1.30111 -0.471861 0)
(0.70537 0.0354688 5.71248e-21)
(1.25427 0.504533 0)
(-0.0262267 0.0458575 -3.66746e-20)
(1.2878 -0.414501 -9.05283e-21)
(1.16154 0.511065 0)
(0.452726 0.214524 1.72224e-19)
(1.10976 0.316506 -1.07617e-19)
(0.817454 -0.643079 -2.60277e-20)
(1.17903 0.0361988 -1.14836e-21)
(0.897891 0.151737 7.1686e-20)
(1.08636 0.170217 5.80489e-20)
(1.06504 0.702488 2.18265e-21)
(0.906169 -0.440229 6.56138e-20)
(1.42686 0.20012 3.19448e-20)
(1.13296 0.00862574 -9.94693e-22)
(0.00906977 -0.0636613 9.71417e-20)
(1.0873 -0.704546 2.72126e-20)
(0.874352 -0.722659 5.34179e-20)
(0.252495 -0.336582 0)
(0.972691 -0.149177 7.40334e-20)
(0.361693 0.305139 -4.46946e-19)
(-0.102708 0.137878 2.30652e-20)
(0.213348 0.0337936 1.85786e-20)
(0.69272 -0.0572419 -7.7338e-20)
(1.07547 0.529224 0)
(0.988459 0.221246 8.51101e-20)
(1.08704 0.031672 4.08024e-21)
(0.907686 0.441181 -9.44256e-20)
(0.786007 -0.728828 -8.42204e-21)
(0.929547 0.0205963 -5.00213e-20)
(0.975253 0.489167 0)
(1.20198 0.0128835 -5.97796e-21)
(1.38615 -0.51349 1.36025e-20)
(1.23003 -0.339637 9.75558e-21)
(-0.208685 0.221399 3.14568e-20)
(0.194891 0.000528955 -1.83961e-20)
(0.974907 -0.120031 -5.92066e-20)
(0.351418 0.522843 0)
(0.916876 0.0135683 3.9856e-20)
(1.14848 0.63535 6.96292e-20)
(-0.0819561 -0.00523766 1.48071e-19)
(-0.0573503 0.034419 -2.20658e-20)
(-0.0890807 -0.0625898 4.01465e-20)
(1.09931 0.0251206 -5.55483e-21)
(1.13983 -0.462597 0)
(1.07052 -0.736837 -4.22011e-20)
(0.697438 0.346976 0)
(0.0295966 -0.00401814 -1.10379e-19)
(1.11776 0.0448159 2.97808e-21)
(-0.0396816 -0.086544 -2.98106e-20)
(1.04756 0.0576614 -1.21505e-20)
(0.0957792 0.0244604 4.75971e-20)
(0.823061 0.127296 0)
(1.34189 -0.0182147 3.90189e-20)
(0.0296955 0.0377752 -2.10947e-20)
(-0.189383 0.210126 -3.7369e-20)
(-0.22323 0.213312 0)
(0.0898472 -0.018733 0)
(1.30238 -0.0178088 -1.14827e-20)
(0.392541 -0.00931315 1.59824e-19)
(1.27247 -0.728249 -2.32976e-20)
(0.943846 0.0197199 4.39197e-20)
(1.06851 0.251242 -3.36856e-20)
(0.36975 -0.561903 1.41086e-19)
(1.53744 0.292985 -2.89772e-20)
(0.0828992 -0.0731715 3.79251e-20)
(0.207836 0.302632 1.99281e-19)
(0.113242 -0.04547 -1.41364e-19)
(0.944702 -0.494982 -4.37567e-20)
(1.44271 0.393371 2.95084e-20)
(0.569609 -0.680129 4.92801e-20)
(1.10684 -0.08287 -7.21855e-21)
(0.218991 0.0767163 5.99621e-20)
(1.16206 0.292956 -4.20852e-20)
(0.659711 0.637543 -4.2418e-20)
(1.34514 -0.62449 0)
(1.40391 0.521674 3.02469e-20)
(1.05632 -0.530152 -1.26856e-20)
(1.3789 0.607782 -8.53779e-20)
(1.18451 0.010352 0)
(-0.0489057 0.0563193 0)
(1.24485 0.729397 0)
(1.23195 -0.011062 -5.15956e-21)
(0.743628 -0.305164 -2.09367e-19)
(0.477568 -0.0861235 0)
(-0.0512221 0.0586783 -2.24735e-20)
(1.02328 -0.247352 9.96966e-20)
(-0.218946 0.175723 0)
(0.321764 0.0221642 1.24283e-20)
(1.15215 0.0239024 0)
(1.39762 0.282339 0)
(1.1958 0.0341624 1.2298e-21)
(0.362677 -0.295936 0)
(1.01091 0.150191 4.0523e-20)
(1.2934 0.291695 0)
(-0.0736214 0.050785 3.7842e-22)
(0.813831 -0.399826 0)
(1.50775 0.349199 -4.39566e-20)
(1.23528 0.371418 4.61467e-21)
(0.838365 0.644861 -1.02669e-20)
(1.00885 0.158039 -9.38709e-20)
(0.970027 -0.205516 -4.85269e-20)
(1.44119 0.302813 2.58981e-20)
(0.965155 0.111006 0)
(0.564294 -0.0745204 0)
)
;

boundaryField
{
    FrontBack
    {
        type            empty;
    }
    Top
    {
        type            noSlip;
    }
    In
    {
        type            fixedValue;
        value           uniform (1 0 0);
    }
    Bottom
    {
        type            noSlip;
    }
    Out
    {
        type            zeroGradient;
    }
    circle
    {
        type            noSlip;
    }
}


// ************************************************************************* //
