/*--------------------------------*- C++ -*----------------------------------*\
| =========                 |                                                 |
| \\      /  F ield         | OpenFOAM: The Open Source CFD Toolbox           |
|  \\    /   O peration     | Version:  2412                                  |
|   \\  /    A nd           | Website:  www.openfoam.com                      |
|    \\/     M anipulation  |                                                 |
\*---------------------------------------------------------------------------*/
FoamFile
{
    version     2.0;
    format      ascii;
    arch        "LSB;label=32;scalar=64";
    class       volScalarField;
    location    "1.6";
    object      p;
}
// * * * * * * * * * * * * * * * * * * * * * * * * * * * * * * * * * * * * * //

dimensions      [0 2 -2 0 0 0 0];

internalField   nonuniform List<scalar> 
808
(
0.148545
0.0741016
0.0573456
0.146049
-0.274143
0.0740138
0.0904479
0.0541909
-0.108811
0.0415681
0.0749302
-0.154933
0.0418984
0.0582571
-0.0877551
0.0494745
-0.0866139
0.0558691
0.0626106
0.0662422
0.0802018
0.363383
0.127336
0.0459611
0.411161
0.0148556
-0.040036
0.0223954
0.0306438
0.0513767
0.0446345
0.0861215
0.0516217
0.0100299
0.0340613
0.593651
0.0877715
0.0547301
0.0946033
0.0121614
0.0393966
-0.0230872
0.0765034
0.0891124
0.0853755
0.144408
0.0380159
-0.00539845
0.0953841
-0.136093
0.0883098
0.0750635
0.0824864
0.0238974
-0.0916087
0.0942476
0.0270786
0.0840768
0.0315049
0.0837684
0.152084
0.0140985
0.07752
-0.0543066
0.0914231
0.078066
-0.171236
0.0280911
0.0764153
-0.353452
0.0791339
-0.40502
0.0715812
0.0584528
0.156962
0.0869115
0.0904771
-0.118748
0.087324
0.288869
0.0286143
0.0599351
0.039688
0.284081
0.0845241
0.0830577
-0.45877
-0.128698
0.109599
-0.0312362
0.0825176
-0.0424091
0.261351
0.219214
0.112733
-0.0563972
0.0313426
0.0678903
-0.0186773
-0.0861348
0.0779657
0.0783454
0.0624902
0.0909067
0.0614694
0.100366
0.0973631
0.0176411
0.0883874
0.0200467
0.0729177
0.309587
0.0944986
0.0716845
0.0370616
0.431126
0.0852624
-0.308836
0.0632789
0.0988868
0.164817
0.105048
0.103343
0.102508
0.16226
-0.0674986
0.144826
0.0762358
0.0834249
0.124023
-0.159048
0.0682755
0.0458203
0.157376
0.0616022
0.0877219
0.0780332
0.000540147
0.116469
0.0836229
-0.423311
0.111212
0.0668994
0.0838965
-0.0158093
0.0827249
0.143746
0.243898
0.116154
0.0117309
0.100626
0.294462
0.123163
0.497298
-0.33539
-0.0223584
0.0787272
0.0421254
0.0824217
-0.0102285
-0.382756
-0.408926
-0.268878
0.0933094
0.0916167
0.0520613
0.104284
-0.276563
0.0821674
0.0648278
0.075768
0.192358
0.0860301
0.107897
0.0680338
0.093305
0.149613
-0.0984181
0.0766881
-0.464034
0.0749987
-0.131943
0.0940704
0.266818
0.010935
0.155815
0.100123
0.00168288
0.0686496
0.0210479
-0.252584
0.045328
0.0625046
0.130052
0.097064
-0.366826
0.0671973
0.0615174
0.0121656
0.128467
0.0963227
0.0407921
0.0444377
-0.443541
0.359727
-0.354065
-0.362131
0.0320683
0.0387285
0.106153
-0.000305516
-0.546231
-0.0659193
0.0691462
-0.0119899
0.0451682
-0.418359
-0.0784672
0.00250006
0.063898
-0.00404312
-0.13383
0.046928
0.041786
0.00625391
0.0499319
0.186948
0.0345265
0.0645946
0.0533392
0.171378
0.0502783
0.053692
0.0433137
0.060456
0.0185684
0.0218946
-0.00358038
0.000451602
0.0426153
-0.0173843
0.000610805
0.00903579
0.0204277
0.00918869
-0.000601427
0.00343587
-0.0163013
0.00257959
0.0819604
-0.391246
0.0117218
0.00178931
0.071597
0.00435932
0.101938
0.0446313
0.00561406
0.0549734
0.147751
0.0641671
-0.00460015
0.0410933
0.0938152
0.0615404
0.0366495
0.0195045
0.0801759
0.0233694
0.0542451
0.0493005
-0.541442
0.277029
0.0276356
0.106574
0.0429789
0.031473
0.0302466
0.0022323
0.246159
0.0512262
0.0550016
0.0374555
0.173875
0.113933
0.0433079
0.076546
0.0891332
0.0386139
0.0718852
0.0457469
0.0643307
0.0461007
0.0435253
0.0535653
0.0516714
0.0489652
0.11923
0.0554572
0.0497568
0.0258362
0.0389042
0.043767
0.0264315
-0.646897
0.0280972
0.0498224
0.0958377
-0.100832
0.0430903
0.0543016
0.0461412
-0.350343
0.156323
0.168883
0.107279
0.066706
0.0558446
0.0176169
-0.28313
0.0699007
-0.0105454
0.0705379
0.053046
0.0486027
0.0744222
0.0542674
0.096435
0.0397571
-0.286912
0.103636
0.0781189
0.0974598
0.0930861
0.101211
0.264103
0.0516688
-0.0612035
0.517819
0.0750099
0.00985365
0.0577319
0.0876704
-0.00928516
0.047641
0.071579
0.0988667
0.0780509
0.0814139
-0.276853
0.0649554
0.13408
0.0800501
-0.281756
-0.371218
-0.0482026
-0.354011
0.0710146
0.0785486
0.0961955
0.101566
0.0907882
0.0440833
0.0688724
-0.0195039
-0.637589
0.0772262
0.0764226
0.0605885
0.118157
0.0837926
0.010497
0.138785
-0.379212
0.076172
0.0958555
0.0596778
0.0822519
-0.298681
0.0794211
-0.437113
0.0976954
0.0865324
0.0624154
0.0920652
0.0727788
0.11204
-0.459213
0.0999059
0.0925576
0.12295
0.0867022
0.0960171
0.0804644
0.0901481
0.0899719
0.117015
0.0557099
0.0816231
0.0261247
0.119885
0.13218
0.0529
-0.0604343
0.0895074
0.0936616
0.39124
0.133891
0.0113718
0.125052
0.0923524
0.0481698
0.0909576
0.0962171
0.0518924
0.0967291
0.0665289
0.0909868
0.0117622
0.00752122
0.00995605
0.0319574
0.0530973
0.143626
0.103656
0.0347541
0.00993978
0.0191172
0.0820296
0.0944704
-0.473847
0.114482
0.083534
0.0126185
0.140849
0.130083
0.0906119
-0.101973
0.107032
0.0819686
0.137353
-0.167022
0.219272
-0.415685
-0.576988
0.14144
0.1187
0.0969886
0.131218
0.341333
0.10303
-0.22152
0.0935648
0.0892185
0.501649
0.00584881
0.0458399
0.0557544
0.105168
0.0887932
0.16661
-0.250706
0.0812259
0.148419
0.0889027
-0.33263
-0.365183
-0.142089
0.0829544
0.0801056
0.1218
0.0642798
0.103228
0.151346
0.104727
0.0907087
0.0147138
-0.465939
0.0875861
0.0878083
0.0851181
0.0578509
0.0608429
0.0503159
0.0230856
-0.617681
0.411956
0.044601
-0.278235
0.0843098
0.0423288
-0.266427
-0.30268
0.105328
-0.431806
0.0992926
0.843236
0.104635
-0.483229
0.0947777
0.105072
0.0963769
-0.579485
-0.10677
-0.358895
0.00337035
0.0957387
-0.486142
0.0757494
0.0785204
0.077147
-0.415833
0.0896841
-0.646469
-0.467504
-0.56782
0.120307
0.0166432
0.0882781
0.136523
0.123359
0.0892592
-0.278253
0.29598
0.0874753
0.0111298
-0.584556
-0.642387
-0.410095
0.0913841
-0.459167
0.0859965
0.101793
0.0970828
0.0683865
-0.226375
0.0175832
-0.331038
-0.353529
-0.00283597
0.0915677
0.132654
0.0844151
0.100177
-0.499298
-0.280519
0.0364874
0.0950708
0.0790948
-0.415568
-0.396729
0.0625184
0.121077
0.110047
0.112854
-0.00248139
0.0147291
-0.438978
0.13064
0.0814739
0.113945
0.0737011
0.0813019
-0.490504
0.0283848
-0.246168
0.0764264
0.132464
0.0897869
-0.00187476
-0.556426
-0.645778
0.0122161
-0.595226
-0.605532
0.0649113
-0.122012
-0.333014
0.0120678
-0.297203
0.0611718
0.0842233
0.108916
0.123119
0.0836732
0.0865505
-0.582674
0.0290749
-0.121909
0.0845053
-0.422571
-0.689554
0.100964
0.270901
0.429716
0.0334735
-0.000457735
0.0324974
-0.474333
0.626938
0.0969488
-0.167426
0.0685322
-0.173115
0.100992
0.476903
-0.550398
0.0730244
0.0468806
0.0585596
0.0548422
-0.63972
-0.268372
-0.00225189
-0.0167286
-0.369097
0.0946717
-0.468264
0.0849263
-0.30537
-0.404121
0.537209
0.601267
-0.141912
0.0661464
-0.322586
0.049959
0.106218
0.419718
0.110824
-0.419282
0.101913
-0.670684
0.0495145
-0.258921
-0.0578753
-0.472365
-0.319892
-0.00160321
-0.000329522
-0.416524
0.367654
0.671317
-0.376463
-0.421407
-0.423314
0.0473029
-0.442942
-0.369186
-0.0530283
-0.407511
0.794569
-0.496607
0.686426
-0.534617
0.310563
-0.408322
0.0693599
0.158181
-0.678057
0.122213
-0.227172
-0.404804
-0.447435
0.888208
-0.3074
0.196964
0.15479
0.591447
0.0869654
-0.0508192
-0.390639
0.0573527
0.0262001
0.0553552
0.432406
0.0259952
0.0329333
-0.37672
0.0950672
-0.162325
0.123372
0.0586367
0.0272175
-0.261729
-0.216837
-0.513088
0.099201
0.108351
0.0847335
0.130749
0.116911
-0.472456
-0.45631
0.102239
0.0661069
-0.601729
-0.676362
0.156914
0.180682
0.0868861
0.693891
-0.128696
0.0983643
-0.482243
-0.413475
-0.094481
0.0536565
0.77451
-0.596016
0.298847
0.0895332
-0.612474
0.163956
-0.123105
0.329051
-0.104649
0.111621
-0.430818
-0.167355
0.108157
0.775668
0.317214
0.785044
-0.0746477
-0.427978
-0.555484
0.148555
0.240723
0.161299
0.382831
0.0353437
0.483071
0.277164
0.101643
-0.26052
0.00679029
0.138907
0.884146
0.376019
0.682912
0.495778
-0.339118
-0.253982
-0.358903
-0.301547
0.112401
-0.514019
0.0247666
0.594507
-0.295732
0.0105897
-0.308851
0.181438
-0.459322
-0.539489
0.0416821
-0.43231
0.102764
0.0665423
-0.445694
0.0451814
-0.570998
-0.215879
0.0954925
0.157298
0.584062
-0.233146
-0.426943
0.860146
-0.434017
0.239106
-0.297687
0.295447
0.123038
-0.184065
-0.544742
0.452621
-0.366695
-0.414986
0.133001
-0.350021
0.0904371
-0.414631
-0.173082
0.0610912
0.517063
0.764599
-0.406253
0.227979
0.168965
0.822748
0.090833
-0.398363
0.0890529
0.727483
0.205593
-0.41701
-0.37643
0.398349
-0.251013
0.0212783
0.345977
0.251451
0.283029
-0.290021
-0.202832
0.676377
)
;

boundaryField
{
    FrontBack
    {
        type            empty;
    }
    Top
    {
        type            zeroGradient;
    }
    In
    {
        type            zeroGradient;
    }
    Bottom
    {
        type            zeroGradient;
    }
    Out
    {
        type            fixedValue;
        value           uniform 0;
    }
    circle
    {
        type            zeroGradient;
    }
}


// ************************************************************************* //
