/*--------------------------------*- C++ -*----------------------------------*\
| =========                 |                                                 |
| \\      /  F ield         | OpenFOAM: The Open Source CFD Toolbox           |
|  \\    /   O peration     | Version:  2412                                  |
|   \\  /    A nd           | Website:  www.openfoam.com                      |
|    \\/     M anipulation  |                                                 |
\*---------------------------------------------------------------------------*/
FoamFile
{
    version     2.0;
    format      ascii;
    arch        "LSB;label=32;scalar=64";
    class       volScalarField;
    location    "705";
    object      p;
}
// * * * * * * * * * * * * * * * * * * * * * * * * * * * * * * * * * * * * * //

dimensions      [0 2 -2 0 0 0 0];

internalField   nonuniform List<scalar> 
808
(
-0.03266169518773043
0.04367413693737593
-0.01114732277919124
0.03831799025333991
-0.294004649956573
-0.05580525326742998
-0.01576542421179143
-0.02405773330093993
-0.1932093728774376
-0.08202292445141793
-0.01053647568655713
-0.2498011677399072
-0.03067743393916694
-0.01421909702938821
-0.1238599352135281
-0.01420843047885345
-0.1402983861843892
-0.01375157030457013
-0.0129503737575746
-0.05423606180401665
-0.008073866732471784
0.1162820246205259
-0.06392309315955912
-0.06986352266706572
0.1738537762020666
-0.1007504702578006
-0.1493724822277238
-0.02049450707278083
-0.01764251591182332
-0.02557652689021344
-0.02040489944294804
-0.05692294353817839
-0.02276279538739039
-0.01696142701667007
-0.09760611429268276
0.3452314523670086
-0.04016621186242348
-0.01643751282085067
-0.02235086837472266
-0.02649019759743154
-0.08845298400104475
-0.1239866580439205
-0.05317279910113722
-0.02145205083079276
-0.05496775859981266
-0.04302110614955359
-0.01187830388037815
-0.1809191108561082
-0.02633275039972399
-0.2003306599840784
-0.01727944244167908
-0.06540134720077403
-0.06218706031605886
-0.01491031962426064
-0.1968464842565346
-0.02755124975145027
-0.01083795641161847
-0.01506009082966941
-0.09809267355415127
-0.03872424811235831
-0.1119504670685452
-0.1231751285073002
-0.01460446374832211
-0.1264378064559954
-0.0175498820770812
-0.05294692955892453
-0.1603037667563646
-0.03536697303442817
-0.01539367230605194
-0.4344188549951297
-0.02599853169799011
-0.2957857682520268
-0.02121330737580201
-0.02112930757714876
-0.06183644617680691
-0.01826149315258677
-0.04141249090493034
-0.36829012092542
-0.03666133453823792
0.03790492315656239
-0.09281585228615741
-0.01670316557485908
0.05730923739493964
0.0466307353153206
-0.01760991232773034
-0.0509954712469663
-0.5345371876991759
-0.2302684090125821
-0.05076015767642341
-0.1142233466647009
-0.05500019586227238
-0.129898641456379
0.03771261562376734
-0.02717218777343816
-0.06331345460784168
-0.1179067027032699
-0.03818982047129219
-0.05231158179465796
-0.1137321916553597
-0.1366097619748857
-0.05323041708379606
-0.04613912044889128
-0.05300861467641461
-0.04367587461143337
-0.05662273082585581
-0.07607626809333899
-0.0400158338378564
-0.01071455228659882
-0.03932478924239775
-0.1210310358822969
-0.04934770419477578
0.08071997802825936
-0.04151269264052673
-0.007856356050712521
-0.02752123861342454
0.1811910448432572
-0.03761755880853451
-0.2633621718722603
-0.02078952550582478
-0.05208321198382557
-0.04229698430305286
-0.04991777008609441
0.0144954113289593
-0.04707132580129711
-0.03732160407534936
-0.2213919926387617
-0.0392981690504863
-0.004345344227252698
-0.07382420893845487
-0.07030903435619318
-0.1466168707112636
-0.02120201268727252
-0.07362597047828966
-0.04495749211512293
-0.02307086475563037
-0.01451808471365927
-0.006085939386230542
-0.007502711576112385
-0.05150467268933783
-0.04838407846189301
-0.2184203224368931
-0.05478350675467317
-0.008123262184910645
-0.02165209587021313
-0.15021977532789
-0.00248848407447108
-0.07459754032788994
-0.0202300759705577
-7.036435294119551e-05
-0.01073285243455256
-0.03261455893349199
0.09249884790522321
-0.037422393640024
0.251180721796
-0.2630123129059438
-0.1348626590918894
-0.03813886445196305
-0.09096630212075683
-0.00924301090512843
-0.1155828372867583
-0.1661088129108789
-0.2180029212920802
-0.1748314715377866
0.05743490623412946
-0.06436826629576095
-0.02062879660600431
-0.06567953231207754
-0.1670619225061311
-0.02282639901076987
-0.01857928579478964
-0.05042667014363133
-0.02145993023717526
-0.007871777501289097
-0.1047560628805143
-0.02366763767869126
-0.04344265344665134
-0.07164195971169716
-0.1580033715764969
-0.03291125240631743
-0.3816436175284482
-0.01791247204686211
-0.2291882264386867
-0.04294066027335516
0.03375278927108465
-0.106755300494803
-0.0171965078837666
-0.04374282782543501
-0.1033641962818149
-0.01782540793864922
-0.0941892930015016
-0.2048248577583299
-0.070460347699626
-0.02418716088080948
-0.0462975126532252
-0.04148986628967764
-0.2022026351652215
-0.02246281504354275
-0.01936465325285213
-0.01123250942203323
-0.05813220371038706
-0.04908737115637844
-0.02261001287623024
-0.02060406237486224
-0.2314807434358976
0.1265389530270345
-0.2091415282325023
-0.1852192689779256
-0.0117290796764989
-0.01119379328193092
-0.0662068697604562
-0.01056527782695593
-0.4890325895099735
-0.1242226001737348
-0.01969250258577356
-0.0001098037884464175
-0.02356058029459967
-0.2747491183988852
-0.2817964575717417
-0.00746848004378465
-0.01741505832617186
-0.001337091394914184
-0.3530482232319038
-0.0285844494410521
-0.0293725332301661
-0.01266942725897871
-0.01939996591189915
0.04794071779380644
-0.1226428987410941
-0.01441266272029266
-0.0209622673666824
-0.04614406180256662
-0.01840206693820256
-0.01639885306428428
-0.02356225814135828
-0.06839346723214976
-0.01090943375544584
-0.01890213886190484
-0.008960182442909689
-0.001184842843793529
-0.02931136854759477
-0.002154466520444974
-0.001920899473664363
-0.00561123294850931
-0.02549845157330171
-0.00806000138972604
0.001550490853886817
-0.004210500150930581
0.001400850906773105
0.002364945848342455
-0.009081740128368997
-0.1295667017187627
-0.002898157343835316
-0.0004407511370965714
-0.04732818241285638
-0.02145885224483214
-0.02343979884086767
-0.01404712468031816
-0.006254165499715876
-0.02112220901823852
-0.04094179966571043
-0.01509976408789633
-0.01274291795054934
-0.01128989136315646
0.007663291804351554
-0.009658485855570749
-0.01288411585797068
-0.01153660570170204
-0.0100885558560316
-0.01033680054455376
-0.01162363193667915
-0.01351044352051348
-0.2895365816351841
0.05821132894770527
-0.01556366089505593
-0.01472815817572249
-0.0123982919347618
-0.01200513786374515
-0.008307483470226971
-0.0980252094804798
0.01395214594474842
-0.01419816811446217
-0.01354867639636693
-0.01049271994788381
-0.0502309372388885
-0.008758228933623586
-0.0136474166745071
-0.01040991959437537
-0.001876249225868835
-0.01186658620165919
-0.01175007464206715
-0.02415370534267602
-0.01529504670408739
-0.01234831888455946
-0.01357515607992578
-0.009154598769748248
-0.01248341919141305
-0.01108253391550783
-0.06056139697033817
-0.01367757411803884
-0.01208732532780003
-0.009259754822170663
-0.01542230041306093
-0.01382734909110565
-0.01562213457897768
-1.360669764784553
-0.101247350876764
-0.01215652122885976
0.02602337888678523
-0.1597713884918671
-0.09278494799337356
-0.01244950504158222
-0.01421546370200667
-0.2304471029255097
-0.02747560096048217
-0.01691531702272384
-0.01257401215266984
-0.02052609149422559
-0.01020493592733551
-0.03082988048067401
-0.4055248025128766
-0.01216163974314456
-0.01408462148423559
-0.004376372879219693
-0.01120217331084964
-0.01024921655807675
-0.01379793429609251
-0.006636873328165901
-0.02748192140828669
-0.01193152633939049
-0.175840304989604
0.02088788491437609
-0.007248399508376724
0.004320890221423559
0.01214117896223697
-0.0493950294397348
0.0268892770093618
-0.01321805364762887
-0.1313770979399116
0.2831640569327839
-0.008111893536193791
-0.01375001555441988
-0.007875219514437089
-0.0329459478303057
-0.1268434659600251
-0.01265628662912977
-0.01187547682103153
-0.01747176350187115
-0.0135124894639198
-0.04184229864648409
-0.2220706299204616
-0.008828149907758324
-0.0444135220208463
-0.03808588167272696
-0.182606138838217
-0.1499131482829124
-0.1486796405813359
-0.2230250966024123
-0.002667317622260823
-0.02058677295327771
-0.01525586253660783
-0.01394447911249843
-0.03397010578152886
-0.02455555441810585
-0.01392036643180202
-0.01485128831840907
-1.064200396143207
-0.003773615087764064
-0.01319558768933853
-0.01797659290410952
-0.02294389740949948
0.003374106756783406
-0.01473092250393794
-0.02457468162723975
-0.1486417766179684
-0.01355067280553236
-0.02094653012392451
-0.01461226136939937
-0.001164411070222381
-0.1780776366277263
-0.01239358016557364
-0.1576902850269181
-0.01539085616780964
0.002631243349647672
-0.01397552713739424
-0.02444946804872291
-0.01625090928846766
0.007165178799164452
-0.2636001134939087
-0.02691809015567627
-0.01684476708995084
-0.01454035367678634
-0.01110089140636317
-0.02901687628223823
-0.01365717736131148
-0.02119815054291883
-0.02035056295367687
0.01064581941119951
-0.09643789794643876
-0.02096929517965336
0.009652171527494417
-0.0603166262432565
0.1863058743457852
-0.1076771644307608
-0.3138428879626222
-0.02978493237042522
-0.02601749893969831
0.1521454900086656
0.0878364064761718
-0.003954263638435733
0.05360541889516701
-0.01498743509833268
-0.01306468518226071
0.002788559285081271
0.006637320367297922
-0.06405259060152445
-0.004645351889732816
-0.05544876762808137
-0.02327529045923283
-0.01569270217745476
-0.03651450487593148
-0.03293104384631734
-0.006696385755135341
-0.01463278016437316
-0.03586905285256243
0.03059877122050164
-0.03861542411516763
-0.01403627063311155
-0.1208182262626513
-0.03077337509916998
-0.0403565753360182
-0.6648708027604595
0.0149952689033276
-0.01034501023331286
-0.005903636006295121
0.1849724830920399
-0.105426640056209
-0.03613921532315906
-0.2400216074361041
-0.01514847402888124
-0.01596570225250143
0.08397763129396343
-0.1782660724664293
-0.2348700133276464
-0.1834705855942344
-0.6723998050974341
0.008139400467310879
-0.01763018349720271
-0.0154891306696751
-0.09611330846656863
0.1190858432932547
-0.02168879768418
-0.2326261065058044
-0.03658584126847474
-0.006932730770462337
0.28106937508555
-0.01076394707508565
-0.08976972840081317
-0.1545681859507747
-0.003872351343106049
-0.04197739277084259
-0.04969258612337132
-0.194120304533947
-0.007654043858340439
-0.03898538815506615
-0.003730436900119468
-0.5406947507153733
-0.1908702350879559
-0.1802475796360919
-0.02370187534856781
-0.009312798871509556
-0.06286394021782658
-0.05578798394860957
-0.01513762555145019
-0.07034011673527905
0.005361770295420682
-0.01744090205048417
-0.09389865897419199
-0.2800102991441881
-0.009564054697934341
-0.02474074704919704
-0.02114048822593611
-0.07716388328285567
-0.08809286932656545
-0.09053750575746942
-0.01155498786529869
-0.9025034865222438
0.1628935597791797
-0.08218895109030312
-0.24812686809477
-0.0409072989944169
-0.009071429163780394
-0.2509733794763818
-0.2015456447919204
-0.02994939228957382
-0.1141558221473117
-0.01852573672127362
0.5634918090268366
-0.02551420820957804
-0.2111960412316193
-0.02470226853273158
-0.004043381908947762
-0.01087806584266042
-1.239624595825672
-0.1792136620258804
-0.2241841856132725
0.005175612734231048
-0.04019119919981318
-0.2331186514621752
-0.06775194564210177
-0.05259478386216061
-0.1480147300704384
-0.1769885133282632
-0.07079425171017303
-1.208655876349979
-0.161377960699367
-0.547235885278782
0.08037631841395135
-0.005806301581910327
-0.02073107560733151
-0.04549527980376097
-0.03710230192545075
-0.02746054714061522
-0.1278862395356583
0.08221670890906906
-0.003767524079373624
-0.009998848707726162
-0.5580469129167981
-0.8440310424805966
-0.1717954504845335
-0.00768939463691434
-0.1225263730815021
0.0003403031469740417
-0.000175220331091087
-0.002917537157204809
-0.06191337521190611
-0.2309998759465545
-0.01325924557002847
-0.1097685434383208
-0.1579775496024434
-0.01307471666764543
-0.03398552592996065
0.03104398875282492
-0.05935682965367439
-0.07295238710654786
-0.4891740989012222
-0.2134491480538743
-0.07893101577090909
-0.07676462945652907
-0.01918435122456929
-0.1112466307461013
-0.1665484267077688
-0.08260063284061822
0.02591266249060457
-0.08830259085276192
-0.05129431813542668
-0.01491989823953021
-0.1144376923820664
-0.2840088373720649
-0.06056032751557051
-0.01787893241233767
0.0006474784724736567
-0.01020709936912667
-0.01042412490821402
-0.2399225317036763
-0.01414926956715884
-0.2142489723116819
-0.01069979471150947
-0.07565251592519033
-0.004119191763212867
-0.02328549196815118
-0.3967072802929484
-0.9356323157939479
-0.01123281890149287
-1.035254695763739
-0.5972708456105753
-0.01050023928701344
-0.6650689248418417
-0.1905842690528909
-0.005146487397935836
-0.1217213311524448
-0.01688349161370162
-0.1270226559101012
-0.06384587629293483
-0.08142058228475749
-0.005523238563006388
-0.002649275919209384
-1.351698525165075
-0.01155355381324344
-0.1832734352199003
0.001130205409047528
-1.001185579183294
-1.255864613767525
-0.07697394634624034
0.01497269595562081
0.164749052504758
-0.004741048277928168
-0.02296082657160051
-0.004325183181252477
-0.2362179224005542
0.3652702242002689
-0.04270701927204718
-0.2159729058712979
-0.01524570620258972
-0.6471433515522235
-0.07099109958124823
0.1876251144267295
-0.3073864024830797
-0.05122641996895973
-0.07096926223383256
-0.01579932342171797
-0.02135921557719591
-0.5995674161493156
-0.1555618986672017
-0.09627703898828772
-0.1166465345598119
-0.5468131403159902
-0.04581543034895415
-0.8972619030558746
-0.0001877813951397588
-0.2464297017353594
-1.059872601138615
0.1632716395364897
0.2883390141889475
-0.1717817429769949
-0.1868091005894929
-0.2183648371931097
-0.06534747593918981
0.02527070833634221
0.04314823861626231
0.004367420406563635
-0.152812780230629
0.02656571155921925
-1.373794564239297
-0.08804456196540159
-0.4826115580654862
-0.3376336492977153
-0.222674202745725
-0.1824815315996307
-0.01697155439137357
-0.0153631374404982
-0.09245264251784072
0.1755260699786124
0.383855178583465
-0.2002967271421709
-0.1559926770126322
-0.2160943546302051
-0.06415923050683339
-0.1636311399645493
-0.17450487336803
-0.1287730911546095
-0.1106204786830768
0.4630540528158694
-0.2865308134002485
0.4341007711467822
-0.5854575765358054
0.07424086731382652
-0.1855366015098423
-0.06862399751011876
-0.07928372438068261
-0.9002905273263198
-0.213920246410217
-0.1946466061654196
-0.3579253699722166
-0.4698786167110808
0.5693993010976947
-0.2178327087622997
0.003711269618825962
-0.06605773672062717
0.3464194152089998
-0.03380793676317702
-0.1217361226870672
-0.1835469909808852
-0.06445353578954441
-0.01633215095265149
-0.2015142197113096
0.1984978272990618
-0.01267521181559444
-0.09975540894495699
-0.1787809050499942
-0.3221169855695174
-0.3055308052908373
-0.08428733750017903
-0.009602506456898002
-0.08214101450244821
-0.6460299159568613
-0.6787157974816199
-0.3220744022132913
-0.05982358003862469
-0.0484766199715719
-0.0241811573938401
-0.07119319898637426
-0.05376180740561891
-0.3715022123724835
-0.9685145088240584
-0.008830450166691836
-0.08633738135829978
-1.152017071487522
-1.04939557008985
-0.1111237009275409
-0.04294042943607439
-0.06693494502242306
0.387503601075377
-0.3367419335787931
-0.05088249638009605
-0.6095418350100976
-0.1380748565041073
-0.2461089519475624
-0.216514360040899
0.4728063840279708
-0.6414475900448898
0.07823397472024467
-0.02811710190216425
-0.5745629413868985
-0.05564244810383903
-0.3690110917048036
0.1111828318645237
-0.1952560923986831
-0.06215341989918405
-0.124697768661461
-0.3546543462541867
-0.08207513474565271
0.5161413682197342
0.08786495715089719
0.4687373360751557
-0.1192798326250941
-0.2095803292122598
-0.5055428209049343
-0.1367170143114677
0.02319512890132296
-0.05642809637605653
0.09828291927093716
-0.3002804965891444
0.2365612841806149
0.003470905435694004
-0.002526121151866899
-0.504464993101063
-0.1796653800181089
-0.09993239936012725
0.5812785748836078
0.1402749136447166
0.3419489669299419
0.2249412235649828
-0.5707144206959829
-0.1991656406961541
-0.2227744154106442
-0.2222396543684612
-0.06307585406899388
-0.6834083965683756
-0.1873824170591172
0.303473094164088
-0.1939102086745053
-0.01137256692903011
-0.1584500337240901
-0.01277125774500623
-0.172472305298965
-0.4512312066387534
-0.07604576202213287
-0.2101811172131269
-0.07610052314442901
-0.1078186646644036
-0.1306759940581214
-0.07194102223875477
-0.4368971106041392
-0.4071773159935076
-0.02250126822024232
-0.0789676112008212
0.3309622887203196
-0.2545082800346203
-0.1692717630289293
0.5233315329835569
-0.191572360048488
0.02258862790949382
-0.4587588372147623
0.0522242712168291
-0.05843498084271648
-0.147816135479988
-0.5967382962505695
0.1569221223370473
-0.5712972993174259
-0.5449150118523411
-0.09994719411376615
-0.5166396180185026
-0.03567976471418757
-0.1563855428014952
-0.4180063157096763
-0.0159859097748355
0.289084460996746
0.490064424806818
-0.1693616331537115
-0.004406046054594047
-0.08682543331278099
0.5248967063756393
-0.03172199404457035
-0.449344162713257
-0.03141460245295256
0.4623364049333271
-0.01842476600213539
-0.554534260062972
-0.2421279054940166
0.1791719117647972
-0.3181996871944704
-0.1844354062379085
0.046245353290011
0.03033644131469086
0.05755544973559912
-0.3072769955603723
-0.1607330894512064
0.4128516317127591
)
;

boundaryField
{
    FrontBack
    {
        type            empty;
    }
    Top
    {
        type            zeroGradient;
    }
    In
    {
        type            zeroGradient;
    }
    Bottom
    {
        type            zeroGradient;
    }
    Out
    {
        type            fixedValue;
        value           uniform 0;
    }
    circle
    {
        type            zeroGradient;
    }
}


// ************************************************************************* //
