/*--------------------------------*- C++ -*----------------------------------*\
| =========                 |                                                 |
| \\      /  F ield         | OpenFOAM: The Open Source CFD Toolbox           |
|  \\    /   O peration     | Version:  2412                                  |
|   \\  /    A nd           | Website:  www.openfoam.com                      |
|    \\/     M anipulation  |                                                 |
\*---------------------------------------------------------------------------*/
FoamFile
{
    version     2.0;
    format      ascii;
    arch        "LSB;label=32;scalar=64";
    class       volScalarField;
    location    "31.9";
    object      p;
}
// * * * * * * * * * * * * * * * * * * * * * * * * * * * * * * * * * * * * * //

dimensions      [0 2 -2 0 0 0 0];

internalField   nonuniform List<scalar> 
808
(
0.117441
0.0258442
0.0700033
0.117062
-0.251184
0.0233149
0.0154404
0.0299699
-0.145463
-0.031312
0.0621259
-0.164166
0.0299535
0.0195947
-0.159813
0.0273371
-0.153096
0.0190933
0.0557506
0.0126826
0.0538649
0.398102
0.0922661
-0.00452491
0.476136
-0.136192
-0.0712981
0.0110295
0.0148859
0.030137
0.0155859
0.0202718
0.0318518
0.014737
-0.0919298
0.633122
0.0251729
0.037491
0.0254417
0.0272649
-0.056528
-0.0696093
0.0513212
0.0396832
-0.165985
0.109307
0.0313362
-0.0022704
0.0267825
-0.187138
0.0212554
0.0133486
0.0628675
0.00558783
-0.0503335
0.0245221
0.0131107
0.0564227
-0.0309282
0.018689
-0.306565
-0.00840899
0.0345393
-0.191354
0.0426594
0.0624146
-0.310544
0.032698
0.0630989
-0.302329
0.0314546
-0.339381
0.0247748
0.0252933
0.175111
0.0339684
0.00623525
-0.0293843
0.023093
0.338885
-0.0914029
0.0250611
0.0436708
0.269465
0.0401015
-0.0128171
-0.383065
-0.069227
0.0333817
-0.128
0.0391866
-0.11375
0.275922
0.1796
0.058352
-0.300724
0.0300639
-0.113146
-0.119729
-0.268437
0.024205
0.0119229
0.0423773
-0.00425557
-0.069293
0.0779322
-0.197685
-0.0267114
0.0220997
0.015987
-0.0367918
0.355492
0.0284782
0.0059777
0.0321581
0.458943
0.0218322
-0.29025
0.0295687
0.0579678
-0.229831
0.0505746
0.0219236
0.0580569
0.135229
-0.0158916
0.102562
0.00114599
0.0250176
0.0861519
-0.370307
0.0301442
-0.0444755
0.151671
0.0295876
0.0211075
0.0516589
-0.00151039
0.0291672
0.0161554
-0.229095
0.0459603
0.0811026
0.0307689
0.0042396
0.00201715
0.0951546
0.155112
-0.192704
-0.0255213
0.0297343
0.366529
0.0345396
0.552303
-0.253917
-0.0590865
0.02446
-0.174147
0.0634761
-0.0789595
-0.325927
-0.239905
-0.341958
0.0261758
0.0784123
0.0338318
0.0274516
-0.365963
0.0233014
0.042417
0.0423225
0.182621
0.00447435
0.111476
0.0252601
0.0692602
0.0899334
-0.170332
0.0307379
-0.367875
0.0420208
-0.0949504
0.0243758
0.26088
-0.156979
0.137674
0.0349913
-0.155071
0.0434274
-0.109453
-0.235955
-0.059647
0.0297422
0.0785364
0.024887
-0.201502
0.029908
0.033467
0.0113505
0.103308
0.0665454
0.0299068
0.033965
-0.340912
0.39106
-0.211929
-0.320814
0.0110945
0.0597403
0.0290364
0.00610337
-0.418421
-0.363763
0.0260188
0.0158054
0.0244229
-0.349492
0.000338933
0.0114258
0.0197497
0.0136609
-0.0483815
0.0319859
0.0314915
0.00881119
0.0332813
0.146448
-0.384185
-0.0234785
0.0158774
0.139079
0.0177071
0.0194996
0.0143247
-0.0774844
0.0391297
0.0148915
0.00689031
0.00761423
0.0236395
0.00852215
0.00703604
0.00613809
0.00939595
0.00496723
-0.00692614
0.0136338
0.0144566
-0.0138436
0.021375
-0.336389
-0.00284236
0.00596646
-0.0668826
0.00704353
0.0205159
0.0310246
-0.00106594
0.0247253
0.151455
-0.0235948
0.0222692
0.0184825
-0.00364963
0.0528016
0.0104728
-0.0272586
0.024932
-0.0222418
0.0685927
0.0112619
-0.41522
0.299383
0.0343487
-0.112215
0.0174462
0.0384145
0.0200262
-0.236521
0.268423
0.011226
0.0561442
-0.0201071
0.0854925
-0.250875
0.0189879
0.0395157
-0.0566882
0.00380571
0.0687655
0.0280168
0.0275543
-0.00705777
0.00642794
-0.0300736
0.0282117
0.0529895
0.0804419
-0.0202459
-0.00420604
-0.0142911
0.0233279
0.00309989
0.0315593
-0.52882
-0.0653459
0.0816623
-0.0390252
-0.193962
-0.201809
-0.00387951
0.0278733
-0.326634
0.125861
0.153657
0.0291522
0.025425
-0.0275554
0.00794872
-0.237742
0.0389725
-0.00516223
0.0404734
0.0457084
0.0156027
0.0355554
-0.00398556
-0.00451784
0.0215539
-0.2819
0.0751949
0.0399823
-0.00443595
-0.0450849
0.0244846
0.254245
0.014484
-0.171844
0.554031
0.115755
0.00847541
0.038006
-0.0937277
-0.0170862
0.00442149
0.0383203
-0.00433891
0.0271455
-0.046417
-0.189392
0.0217884
0.128741
-0.0112734
-0.263977
-0.330422
-0.383923
-0.336195
0.0399907
0.0293846
0.0130033
0.011791
-0.0331554
0.0121166
0.0303916
-8.29025e-05
-0.522395
0.0864321
0.0187525
0.0479396
-0.0912091
0.059603
-0.0091167
0.111163
-0.378389
0.0540565
0.0121146
0.0271065
0.0867208
-0.294165
0.024305
-0.252534
0.00776826
0.0713051
0.0527243
0.0229993
0.0450075
-0.164916
-0.358982
0.0111469
0.0102122
-0.208468
0.0249848
0.0142438
0.0203994
-0.00774617
0.0111356
-0.297203
0.0287904
0.02445
0.0290923
-0.270926
-0.249909
0.0909936
-0.0238329
-0.0314679
-0.0367509
0.422379
-0.132923
0.0183019
-0.100958
0.0218568
0.0295114
0.0328333
0.07459
-0.00278292
0.0486294
-0.0376546
-0.0107376
-0.00483933
-0.00676328
-0.01217
-0.010187
0.0322527
0.112278
0.0105896
0.0250296
0.0107918
0.0515798
-0.00345567
0.0384864
-0.394832
0.00200054
0.0351024
0.0318551
-0.158451
-0.319925
-0.0133734
-0.099001
0.0288565
0.0313883
-0.325786
-0.262849
0.274115
-0.333438
-0.472335
-0.0757422
-0.125383
0.0165043
-0.343673
0.357222
-0.0773119
-0.311995
0.0163879
0.10953
0.565155
0.0151205
0.00389241
0.0793251
-0.0937798
-0.000763707
-0.327264
-0.2047
-5.992e-05
0.0619886
-0.0308372
-0.277751
-0.336219
-0.147964
0.026388
0.0453956
0.113177
-0.00668517
-0.0709032
0.0998538
-0.0258283
0.0236707
-0.173297
-0.243489
0.0264843
-0.00207224
0.0246191
0.0316291
0.0781765
-0.0235117
0.0412699
-0.482231
0.454039
-0.239262
-0.288786
-0.00568707
0.0082873
-0.271639
-0.252257
0.117397
-0.350404
-0.0368565
0.87234
0.0257457
-0.369677
0.0175589
0.0254194
0.0143155
-0.477528
-0.255185
-0.328441
0.000523441
-0.092492
-0.37552
0.00997193
-0.0050424
0.137862
-0.342989
0.0533436
-0.519232
-0.266223
-0.32634
0.0433323
0.0454908
0.0203453
0.127024
0.123872
0.00584427
-0.290715
0.304827
-0.0621253
-0.0102008
-0.455291
-0.515796
-0.355524
0.0072807
-0.363791
-0.0476975
0.0509309
0.0180171
-0.152152
-0.248853
0.0248377
-0.31775
-0.204674
0.0131546
0.0112517
-0.33636
0.0105031
0.05978
-0.397671
-0.352091
-0.0915613
0.128855
0.0310304
-0.345194
-0.241834
-0.316102
0.00988411
0.069051
0.124265
0.00431972
-0.382263
-0.237384
0.129588
0.0288996
-0.002988
0.0477388
0.0411938
-0.274782
0.0482146
-0.289952
0.0517309
-0.211672
0.0808134
0.00297704
-0.305408
-0.392186
-0.000383624
-0.491651
-0.478699
0.0562073
-0.0168764
-0.246206
0.0013745
-0.304557
0.0284353
0.113553
0.059026
-0.207158
-0.0288871
0.113192
-0.386256
0.0201336
-0.304797
0.0247975
-0.337438
-0.443617
0.0908234
0.305728
0.452368
0.0228962
0.00288248
0.00272845
-0.356286
0.663589
0.0312178
-0.142674
0.0174663
-0.0919611
0.075428
0.514277
-0.311705
-0.0311014
-0.0197416
0.0292078
0.0233919
-0.388957
-0.274322
-0.329241
-0.240687
-0.295505
0.0118635
-0.380234
-0.0479412
-0.204017
-0.249957
0.552389
0.622191
-0.206102
0.0993181
-0.256781
-0.0143081
0.0817627
0.44952
0.0540678
-0.334794
0.0549614
-0.441902
0.0054204
-0.145715
0.0252255
-0.259506
-0.201122
0.00425454
0.00340115
-0.336732
0.437112
0.699284
-0.366005
-0.244834
-0.351686
-0.0382941
-0.250379
-0.241483
-0.107888
-0.336085
0.78688
-0.283718
0.742487
-0.432367
0.325464
-0.334194
0.0260355
0.210148
-0.435299
0.203345
-0.195296
-0.250738
-0.279127
0.892973
-0.267937
0.206128
0.140263
0.642887
0.119187
-0.22608
-0.204557
-0.134937
0.0186982
0.132887
0.509549
0.016256
0.00925078
-0.242935
0.168296
-0.138554
-0.278839
0.0479635
-0.169869
-0.182519
-0.0991208
-0.386395
0.0231817
0.101999
0.0168982
0.104422
0.104055
-0.272264
-0.294588
0.0386733
0.0411586
-0.399787
-0.446345
0.222028
0.22538
0.0912026
0.701857
-0.0971968
-0.250352
-0.322389
-0.243804
-0.0752937
0.12438
0.786746
-0.385952
0.364277
0.0136504
-0.361955
0.184249
-0.0235152
0.377361
-0.0992791
0.0358921
-0.344386
-0.0999578
0.177512
0.81796
0.335577
0.788365
-0.381697
-0.235293
-0.436742
0.207973
0.29671
0.0859604
0.416837
0.115044
0.509325
0.313184
0.0288206
-0.207978
0.0124317
-0.235977
0.900129
0.41668
0.685923
0.528176
-0.209289
-0.370166
-0.249404
-0.303191
0.0709924
-0.427791
0.0848211
0.625344
-0.397093
0.00835245
-0.307084
0.214883
-0.274464
-0.306502
-0.13614
-0.221107
-0.262102
-0.317522
-0.353617
-0.10364
-0.437351
-0.154607
-0.295733
0.18007
0.64992
-0.159733
-0.338496
0.854491
-0.335515
0.27775
-0.180569
0.373358
0.0860258
-0.391738
-0.333075
0.483297
-0.297898
-0.263235
0.176339
-0.218738
0.00474439
-0.242707
-0.0662808
0.0469563
0.571037
0.792392
-0.243199
0.223201
-0.239847
0.839505
0.0101496
-0.253478
0.00609735
0.768765
0.236744
-0.261166
-0.238977
0.451145
-0.157862
0.0774097
0.391486
0.281784
0.294511
-0.193695
-0.217867
0.702133
)
;

boundaryField
{
    FrontBack
    {
        type            empty;
    }
    Top
    {
        type            zeroGradient;
    }
    In
    {
        type            zeroGradient;
    }
    Bottom
    {
        type            zeroGradient;
    }
    Out
    {
        type            fixedValue;
        value           uniform 0;
    }
    circle
    {
        type            zeroGradient;
    }
}


// ************************************************************************* //
