/*--------------------------------*- C++ -*----------------------------------*\
| =========                 |                                                 |
| \\      /  F ield         | OpenFOAM: The Open Source CFD Toolbox           |
|  \\    /   O peration     | Version:  2412                                  |
|   \\  /    A nd           | Website:  www.openfoam.com                      |
|    \\/     M anipulation  |                                                 |
\*---------------------------------------------------------------------------*/
FoamFile
{
    version     2.0;
    format      ascii;
    arch        "LSB;label=32;scalar=64";
    class       volVectorField;
    location    "31.9";
    object      U;
}
// * * * * * * * * * * * * * * * * * * * * * * * * * * * * * * * * * * * * * //

dimensions      [0 1 -1 0 0 0 0];

internalField   nonuniform List<vector> 
808
(
(0.896291 -0.011542 0)
(1.01481 -0.0358485 0)
(1.10837 -0.0621214 0)
(1.06704 0.0114145 -2.46257e-21)
(1.49297 -0.273857 0)
(0.950434 -0.0218894 0)
(1.12048 -0.054719 -3.96853e-21)
(1.15382 -0.0518676 0)
(1.36872 -0.21974 2.82414e-20)
(1.22833 -0.0777277 -8.77444e-21)
(1.10036 0.0587969 1.09553e-20)
(1.40036 -0.240648 0)
(1.01272 -0.0512767 0)
(0.740635 -0.0265091 0)
(0.857904 0.0872269 1.16025e-20)
(1.09413 -0.043794 0)
(0.742478 0.00659188 -3.37686e-21)
(0.996624 -0.0392168 -8.93229e-23)
(1.09915 -0.0425979 0)
(1.10804 0.00385789 0)
(1.14834 0.0360931 -1.52877e-20)
(0.928853 0.120207 1.16539e-19)
(1.07471 0.0139834 -1.71706e-20)
(1.17122 -0.0225632 0)
(0.946935 0.171194 0)
(1.35149 0.0897947 -2.14602e-20)
(1.28983 -0.157336 1.00387e-20)
(0.956097 -0.0227859 -5.40808e-21)
(1.07327 -0.0265714 0)
(1.04099 0.03029 -3.90514e-22)
(0.967115 -0.0147248 4.32623e-24)
(1.1177 -0.00928928 0)
(1.07681 0.0251068 0)
(1.06413 -0.0183251 4.19039e-21)
(1.30156 -0.0478493 8.35897e-21)
(0.743667 -0.127551 1.11264e-19)
(0.87283 -0.0313923 -1.02575e-20)
(1.03527 0.0159142 1.92579e-21)
(1.20551 0.0537035 -3.67696e-21)
(1.12076 0.0316145 0)
(1.25237 -0.0412857 -1.4889e-20)
(1.277 -0.115764 0)
(1.01278 -0.00270672 -1.07781e-20)
(1.10883 -0.0313651 1.27496e-20)
(1.26084 0.0241517 0)
(1.01046 0.0160294 -2.36666e-20)
(1.0006 0.0344318 2.86127e-21)
(1.26306 -0.239316 1.11588e-20)
(1.17849 0.0472124 -8.33171e-21)
(1.42168 -0.150704 -4.08009e-20)
(1.1099 -0.0722227 7.73803e-21)
(1.14481 -0.0628807 0)
(1.12016 0.000854923 9.63531e-21)
(1.14964 0.0180452 0)
(1.30549 0.239911 2.14345e-21)
(1.0757 0.0328084 -3.33761e-21)
(1.21324 0.0400178 0)
(1.21196 0.0529291 5.28284e-21)
(1.23546 -0.0769724 9.41889e-21)
(1.13871 0.022207 -9.16388e-22)
(-0.374955 0.394926 0)
(1.22025 -0.211088 -8.24836e-21)
(1.20776 0.0219852 0)
(1.42266 -0.0298174 -2.94434e-20)
(1.12952 0.00669419 -1.34817e-20)
(1.04286 -0.0283591 -1.0551e-20)
(1.42109 -0.0830888 3.37265e-20)
(0.669767 0.0214079 0)
(1.10376 -0.0145753 0)
(1.47649 -0.349771 0)
(0.90263 0.0324721 -2.63104e-22)
(1.30133 -0.129115 -4.50619e-20)
(1.01729 0.0579995 0)
(1.05359 -0.0237094 -4.16354e-21)
(1.13651 -0.339182 -5.46463e-20)
(1.09914 -0.0438895 -1.71504e-20)
(1.13035 0.0170239 -1.32171e-23)
(1.30636 0.488664 2.44164e-20)
(1.09899 -0.046272 0)
(1.00749 0.270111 -1.95026e-19)
(1.35217 0.0632287 1.19106e-20)
(0.747198 0.0150466 0)
(0.846564 0.0223649 -1.28849e-20)
(0.971103 -0.113439 4.18385e-21)
(1.08904 -0.0395098 1.34931e-20)
(1.17117 0.0127668 8.27826e-22)
(1.32729 -0.232067 0)
(1.33402 0.280057 0)
(1.0814 0.00487145 -1.53593e-20)
(1.35137 0.120944 2.47139e-20)
(1.07493 -0.0144604 1.24431e-20)
(1.32605 -0.0993867 -1.54971e-21)
(0.96489 0.0242933 1.8722e-20)
(1.00399 -0.0223214 0)
(1.11278 0.0198706 2.1488e-21)
(1.39155 0.0288772 -8.351e-20)
(0.769256 0.0173736 -3.74506e-21)
(1.37647 -0.00843059 0)
(1.32472 -0.0635842 0)
(1.44982 -0.054426 -5.24528e-20)
(1.10038 -0.0513481 -4.92619e-21)
(1.11217 0.0111213 -1.11233e-22)
(0.943467 0.0198399 1.14467e-20)
(1.16166 0.0036691 1.55389e-23)
(1.26408 0.032452 -1.69193e-20)
(1.00421 0.00449863 1.6838e-20)
(1.45828 -0.013375 0)
(0.913235 0.0412109 0)
(1.09352 0.0245443 7.13943e-21)
(1.21399 -0.212164 -6.02276e-21)
(1.2307 0.0246641 5.89694e-21)
(1.0414 0.0412774 -1.28235e-19)
(1.15428 0.0332498 -2.7573e-21)
(1.29623 0.0911905 3.60653e-22)
(0.806456 0.0154726 0)
(0.918894 -0.0538707 7.6636e-20)
(1.13932 0.0157421 -6.79318e-21)
(1.47412 -0.255742 -2.03444e-20)
(1.1328 -0.0271008 -9.41039e-21)
(0.928402 0.0194173 2.24904e-21)
(-0.343807 0.15108 0)
(0.860315 -0.0169403 2.41153e-21)
(0.793935 0.0212821 0)
(1.05827 0.00515401 -9.28671e-23)
(1.01085 0.0285337 0)
(1.29691 0.319847 3.79176e-21)
(1.03768 -0.0507026 -3.08191e-20)
(1.43028 0.0605172 -1.99705e-21)
(1.14901 -0.0535556 0)
(1.09379 -0.0203923 0)
(0.749662 -0.0127887 0)
(1.14811 -0.0341994 -4.68312e-21)
(1.23171 -0.0369707 8.11286e-21)
(1.06401 0.109958 -3.78248e-20)
(0.860065 -0.0301984 0)
(1.09654 0.0205203 -1.77269e-21)
(1.11902 0.213126 3.27961e-21)
(1.16576 0.102026 6.2848e-23)
(0.996007 0.0286362 4.94436e-21)
(1.11604 0.00876139 9.32479e-23)
(-0.0428753 -0.0177443 0)
(1.09353 -0.0169798 -1.37639e-20)
(1.00807 0.046852 4.1961e-21)
(0.721947 0.0237156 -4.93159e-21)
(1.24865 0.166923 4.26864e-21)
(1.16286 0.245847 2.04049e-22)
(1.04498 0.0182778 1.68341e-20)
(0.99202 0.02787 0)
(1.24728 -0.108314 -3.22551e-20)
(1.14067 0.124029 0)
(0.948274 0.0315699 1.02271e-20)
(0.966204 0.271364 1.55723e-19)
(0.96838 0.0340082 0)
(0.818773 0.0848479 0)
(-0.11953 -0.0549523 -6.20064e-20)
(1.32734 0.135174 -8.2086e-21)
(0.677492 -0.0196117 0)
(1.40136 0.0869662 0)
(1.16234 0.133763 0)
(1.33945 0.120632 8.95887e-21)
(-0.0490776 -0.177332 0)
(-0.0659513 -0.0199088 2.87094e-20)
(1.10965 -0.0225523 1.00201e-19)
(1.00241 0.0353664 1.41064e-21)
(0.860465 0.000192128 0)
(1.04239 -0.0382023 1.37863e-20)
(0.884366 0.0213725 0)
(0.861079 -0.0290257 -1.08243e-19)
(1.04275 0.0440596 1.33283e-20)
(1.14345 -0.017664 4.24274e-21)
(1.08955 0.0120982 7.06807e-21)
(1.0126 0.0661297 -1.36339e-20)
(0.91625 0.225028 -2.03128e-22)
(1.1469 -0.350262 4.64894e-22)
(0.912624 -0.0252963 0)
(1.06647 0.0036517 -1.34331e-20)
(0.873884 0.00744026 -1.34232e-20)
(1.39104 -0.150779 2.35286e-21)
(0.689123 0.0305859 0)
(1.09343 -0.140451 0)
(1.15489 -0.0203267 6.45582e-21)
(1.37385 0.212017 6.52787e-21)
(1.10764 0.0152297 5.4164e-21)
(1.0355 0.0211209 1.92194e-20)
(0.59123 0.0942571 -4.674e-20)
(0.812614 0.0025719 2.32968e-20)
(1.13862 -0.0213927 7.23144e-21)
(1.37196 -0.019515 -5.05911e-21)
(1.13235 -0.0170254 -7.96149e-21)
(1.31012 -0.0106344 4.33532e-21)
(-0.122447 -0.0165909 4.44492e-20)
(1.25059 0.00219766 0)
(0.633006 -0.0110958 0)
(1.06342 -0.021959 -6.17534e-21)
(1.09233 0.0139218 8.11163e-21)
(-0.00737689 0.0392503 0)
(0.88449 -0.0253784 5.78369e-22)
(1.17717 -0.0465295 -3.59546e-21)
(0.971757 0.0354183 2.16691e-21)
(1.07681 0.0395869 -8.71572e-21)
(1.00156 0.0191708 2.54429e-21)
(1.0757 -0.0401943 3.17162e-21)
(1.06353 0.0224685 0)
(0.379796 -0.0417122 0)
(1.04617 -0.0651196 0)
(1.11347 0.101907 -2.26784e-20)
(-0.0408957 -0.194714 5.11949e-20)
(1.1063 0.0455956 -1.71734e-23)
(1.00067 -0.129987 0)
(0.754479 0.0198968 -9.59216e-21)
(1.03332 0.111527 2.3826e-21)
(-0.00465147 -0.0418799 -1.65755e-19)
(0.965015 0.0520908 -6.80413e-20)
(0.637475 -0.0126861 0)
(0.783313 0.160049 0)
(0.932685 0.0413689 8.83448e-21)
(1.06719 -0.109621 6.45536e-21)
(1.2652 0.391551 -7.01335e-21)
(1.00255 0.135006 -1.07745e-22)
(1.2635 0.0132657 -2.03347e-21)
(0.968696 0.19379 0)
(1.34752 0.415711 -2.51542e-20)
(0.678109 -0.0258616 0)
(0.803076 -0.0245971 -4.19115e-21)
(1.05948 -0.0258394 -1.41889e-22)
(0.606953 0.0111034 0)
(1.10067 -0.00624014 0)
(0.225501 0.110217 -5.82885e-20)
(1.21969 -0.0707145 2.07635e-21)
(0.722899 -0.0149454 2.41741e-21)
(0.990123 -0.00237076 0)
(0.552519 -0.0169246 0)
(0.755518 -0.0198286 -3.56271e-21)
(0.5472 -0.0135299 -2.99344e-22)
(1.34833 0.0544985 2.13572e-22)
(1.15894 -0.134754 -3.00514e-21)
(0.70712 0.0192695 -2.75128e-21)
(1.15714 -0.001633 5.5049e-22)
(1.02958 0.134859 1.01517e-22)
(0.558022 0.0140954 7.46566e-21)
(1.26756 0.0553205 1.0531e-21)
(1.20024 0.0140362 0)
(0.846778 0.245981 0)
(0.495628 0.0197207 0)
(1.07592 -0.0181683 0)
(1.14711 0.0262516 1.39631e-21)
(0.994148 0.0862843 0)
(1.22677 -0.0113249 0)
(0.989693 0.103808 0)
(1.19138 0.22259 0)
(-0.0288544 -0.0702979 5.21579e-20)
(1.19102 0.0805407 -8.39985e-22)
(1.16772 0.159642 0)
(1.26641 0.0566825 2.96179e-21)
(1.17459 0.0904295 1.06959e-21)
(1.12323 0.0291702 3.24305e-21)
(1.16644 -0.144636 5.34593e-21)
(1.14295 0.032476 0)
(0.582684 -0.0160781 7.92958e-21)
(1.04917 0.0435342 1.32603e-20)
(1.30706 -0.152235 0)
(1.11476 0.0303476 -2.72101e-21)
(1.25265 0.0933611 3.21691e-21)
(0.568657 -0.15757 3.58898e-21)
(1.12306 0.00559801 9.12228e-21)
(1.14036 -0.0351484 -7.35801e-21)
(1.08213 -0.0246172 0)
(1.24653 0.173634 -7.1474e-21)
(1.22403 0.0742471 3.23207e-21)
(0.692996 0.189718 1.52568e-20)
(0.694413 -0.243946 0)
(-0.0188118 -0.0236427 0)
(0.972182 0.107824 -1.86252e-20)
(1.09891 -0.0110788 0)
(1.36133 -0.10289 3.49395e-20)
(1.2883 0.0401218 1.6185e-22)
(1.09779 0.0293782 7.07321e-21)
(1.25562 0.0497237 -3.12188e-21)
(1.37884 0.0505507 1.17128e-19)
(1.02821 -0.332595 5.51734e-20)
(1.16687 -0.0534006 8.45676e-22)
(0.799553 -0.131205 0)
(0.799088 -0.142236 0)
(0.906302 0.00488601 -2.85937e-20)
(1.35441 -0.107804 -6.3759e-20)
(1.11545 -0.100766 0)
(0.718956 0.292414 1.2122e-20)
(0.417777 -0.167433 0)
(0.736757 -0.220832 -4.05193e-23)
(0.855647 0.2318 -1.45372e-20)
(0.816083 0.0251113 -5.51178e-21)
(1.21859 -0.120636 0)
(1.26846 -0.0147042 -1.88799e-22)
(1.12873 -0.0862476 3.84921e-21)
(0.760677 -0.0615037 5.43231e-21)
(1.15601 -0.110522 -5.10676e-21)
(0.668589 -0.0863041 0)
(1.09094 0.0726393 0)
(1.23644 -0.178385 -2.22224e-21)
(0.919143 -0.150899 4.09318e-23)
(1.33919 0.117209 -4.86142e-21)
(1.11349 -0.0774128 -4.34634e-21)
(0.923611 -0.164247 1.06527e-22)
(1.06216 -0.0447252 0)
(0.432736 -0.143276 1.49333e-20)
(1.32871 0.10548 -1.43514e-20)
(0.781312 0.0693438 -1.84099e-20)
(0.177729 -0.417931 -3.79573e-21)
(1.43344 -0.0926432 2.7008e-20)
(0.820744 0.0610169 4.28243e-20)
(1.31813 -0.165356 2.04142e-21)
(1.10672 -0.0557036 1.07642e-21)
(-0.0502035 -0.200724 -8.79596e-21)
(0.999821 -0.00595307 0)
(1.03329 -0.0889447 -1.59385e-20)
(0.850349 -0.0347413 1.13361e-20)
(1.10552 -0.0366647 4.94556e-21)
(0.899494 0.0193756 -2.56496e-21)
(0.525153 -0.0239086 8.24721e-22)
(1.43546 -0.380071 -1.63351e-20)
(1.07216 0.0483026 0)
(1.01105 0.0219511 1.05446e-21)
(1.12167 0.0280411 -3.34243e-21)
(1.23613 -0.0981703 0)
(0.703957 -0.180545 -6.5953e-21)
(1.1211 0.0532506 3.58819e-21)
(0.671582 0.176877 -1.28386e-21)
(1.16379 -0.0625384 4.66822e-21)
(0.84627 -0.21721 3.40383e-21)
(-0.0382518 -0.140575 0)
(0.158732 -0.143708 -5.25301e-22)
(1.10381 0.00614607 0)
(0.878704 -0.160219 -4.94765e-21)
(0.894315 -0.11665 0)
(1.13691 -0.00870143 6.37314e-21)
(1.01704 0.0270785 0)
(1.15648 -0.182247 0)
(1.39707 -0.087091 2.15657e-20)
(0.802611 -0.0972966 0)
(0.946977 0.129608 3.55035e-20)
(1.11936 -0.00971493 7.23531e-23)
(1.03403 0.0351033 4.0167e-21)
(1.35353 -0.0384218 -1.96437e-20)
(1.23444 0.131429 -8.16988e-22)
(1.23027 0.0212408 9.16368e-22)
(1.09774 0.0673029 0)
(1.15178 -0.066778 0)
(1.10306 0.0836794 1.88382e-21)
(1.24702 -0.0375753 0)
(1.37931 0.205416 -1.90326e-20)
(0.7597 0.196409 4.50838e-21)
(1.02636 0.0169945 2.56039e-20)
(1.20475 0.0199896 -5.81605e-23)
(-0.00677569 -0.0594545 0)
(-0.0398481 -0.122716 0)
(0.175956 0.0855606 -5.33579e-20)
(-0.0296536 -0.182098 0)
(0.577238 0.302431 -6.83601e-21)
(1.18608 0.0510638 -2.63413e-21)
(1.1228 -0.0674139 -6.11398e-21)
(1.2142 -0.178976 -7.85879e-21)
(1.23683 -0.0658033 0)
(0.694466 -0.016919 -2.18641e-21)
(1.14805 0.0925546 0)
(1.11573 0.0494127 -9.44668e-22)
(0.524956 -0.112078 0)
(0.570011 0.155141 -7.5642e-22)
(1.17484 0.0787799 0)
(1.17719 0.0202189 0)
(0.559146 0.226843 3.60264e-20)
(0.47546 0.145218 -4.51613e-22)
(0.988365 0.172315 -6.71517e-22)
(1.00917 0.0177836 -9.31963e-21)
(0.24951 -0.108425 0)
(1.13634 0.14087 -2.93263e-20)
(1.21751 -0.0112362 2.53311e-21)
(1.11363 0.119757 4.46218e-21)
(0.42125 -0.0633744 1.04289e-20)
(-0.0530628 -0.171402 -1.0331e-19)
(1.21361 0.0671837 0)
(-0.0306029 0.0255655 0)
(1.24014 0.0115023 4.26936e-21)
(0.323179 -0.13298 -1.12236e-20)
(1.13149 -0.0113261 -1.88747e-20)
(1.1047 -0.0500137 0)
(1.08472 -0.0298152 3.9535e-21)
(1.33586 -0.286757 3.08135e-20)
(0.587712 -0.0454944 -1.06892e-20)
(1.14485 -0.0480142 -1.85934e-21)
(1.13641 -0.0720662 -2.60211e-22)
(0.626505 -0.284564 3.1243e-20)
(1.15332 -0.11716 -1.19433e-20)
(1.13153 0.0197559 0)
(1.21374 0.0933888 0)
(1.18024 -0.125067 3.18454e-21)
(1.20903 0.00730586 -2.2893e-21)
(0.835308 -0.166733 -9.57117e-20)
(1.19599 -0.106327 -1.19878e-20)
(1.14964 0.0369142 8.58313e-21)
(0.521319 -0.00126625 1.61881e-20)
(0.51243 0.267865 -7.57451e-20)
(0.213601 0.158307 5.03702e-20)
(1.16485 0.182673 -6.31298e-21)
(1.2554 -0.501188 7.15816e-21)
(1.25847 0.0522537 -6.83361e-21)
(1.2101 -0.0765318 -3.77386e-21)
(0.946108 -0.244303 9.37781e-20)
(-0.176698 0.153004 0)
(1.16678 0.0623774 -1.3519e-21)
(-0.172323 0.0756262 -2.50346e-20)
(1.23368 0.0540615 -3.69467e-21)
(1.26408 -0.0509723 4.57823e-21)
(1.08778 0.0291681 0)
(0.495977 -0.204452 0)
(1.16114 -0.0408172 0)
(1.26362 -0.00786396 4.82767e-21)
(1.22233 -0.00526197 -1.31838e-20)
(1.154 -0.0572548 -1.94851e-21)
(0.46033 0.017084 0)
(0.612973 0.0106211 0)
(0.614464 -0.00292094 3.72008e-22)
(0.433155 -0.0159204 0)
(1.23375 -0.0260543 0)
(1.02292 -0.0130244 2.42321e-20)
(0.43241 -0.403251 0)
(0.956247 0.0454956 0)
(1.08816 0.00886207 0)
(1.16393 0.184899 -1.44095e-20)
(1.21534 0.00814326 -2.82087e-22)
(0.966918 -0.0326526 9.3356e-21)
(1.32874 -0.405402 -1.19632e-19)
(0.678174 -0.320971 1.88246e-20)
(1.25401 0.173322 3.94479e-21)
(1.14407 0.00331685 0)
(-0.076344 0.0502812 0)
(-0.193847 0.181459 0)
(1.17542 -0.0336243 -3.11233e-21)
(1.34108 -0.285367 -3.29579e-20)
(1.27635 0.00110713 0)
(1.08306 0.0575209 -8.89759e-21)
(0.583634 0.0449656 0)
(1.5303 -0.142147 8.50819e-20)
(0.406519 0.508813 1.30193e-19)
(0.322175 -0.0579521 0)
(1.13389 -0.28051 1.28443e-19)
(0.134132 0.371163 0)
(0.126181 -0.370399 1.32141e-20)
(1.22886 0.0176727 0)
(-0.0792397 0.228132 7.77079e-21)
(0.983697 -0.0498371 0)
(1.33018 -0.153257 -1.6172e-20)
(-0.151507 -0.0880816 -8.87043e-21)
(1.13218 -0.0344628 1.76859e-21)
(1.06943 0.0272988 -1.75307e-20)
(0.584855 -0.537884 -9.03802e-20)
(1.19615 0.0920878 -1.67475e-21)
(1.19911 -0.117795 2.64907e-21)
(1.16913 0.242477 -2.77837e-20)
(1.20951 -0.319224 -9.64952e-21)
(1.17501 -0.025734 4.36484e-22)
(-0.153353 0.282967 -4.96017e-20)
(-0.029085 0.0248302 -6.13268e-21)
(1.38542 0.158247 3.83457e-21)
(1.05685 -0.0453417 0)
(0.653983 0.15259 6.5084e-21)
(1.43394 -0.443775 9.22912e-20)
(0.999216 -0.0796251 -6.90571e-20)
(1.3851 0.159549 5.01977e-20)
(1.06993 -0.0340667 5.16359e-21)
(1.12218 -0.0303677 1.09702e-20)
(1.06244 -0.00750691 0)
(1.16399 -0.0131028 0)
(1.28259 -0.153751 4.43352e-21)
(1.08843 -0.0183218 -4.54234e-21)
(1.20846 -0.287433 1.0444e-20)
(1.12049 0.0576227 -6.59111e-21)
(1.40094 0.033679 -4.3887e-20)
(0.420383 0.0140336 0)
(1.12748 -0.12962 6.64991e-21)
(1.23576 0.032936 0)
(1.14133 0.049147 -4.9154e-21)
(1.14316 0.0281892 0)
(1.03957 -0.00750822 1.30124e-20)
(1.23655 0.0489145 7.42629e-21)
(1.03403 -0.0685929 0)
(0.0596358 -0.029695 1.73116e-19)
(0.886888 -0.223732 -7.35566e-20)
(1.33813 0.128014 -3.1101e-20)
(-0.107052 -0.11742 4.11579e-20)
(1.17013 0.0156911 6.45454e-23)
(0.648426 -0.00703624 -5.31906e-21)
(-0.0999062 -0.102076 -4.29108e-20)
(-0.0139749 -0.0652398 -2.52692e-20)
(1.02183 -0.0279379 0)
(-0.0320144 -0.0457765 0)
(1.14306 0.0818569 0)
(0.113362 -0.121012 0)
(1.11713 -0.0335367 0)
(0.149846 0.0297656 0)
(1.1222 0.0258236 0)
(1.08752 -0.000943314 0)
(1.38518 0.0271832 6.25332e-22)
(0.594838 -0.294628 -2.37759e-20)
(-0.167847 0.0379798 0)
(1.21063 -0.075033 7.18909e-20)
(1.33044 0.155895 -7.8342e-23)
(1.25626 0.119411 0)
(-0.0398338 -0.0457362 0)
(1.16352 0.0161394 -2.49852e-21)
(1.17474 -0.00578372 3.0101e-22)
(1.15696 0.381666 0)
(0.323356 -0.0971423 7.0318e-20)
(1.12125 0.0649675 1.76946e-21)
(0.248998 -0.0531227 -5.83332e-20)
(-0.0572452 0.0336871 -2.75736e-20)
(-0.0316997 0.0474785 7.29473e-20)
(-0.0244215 -0.00266822 -1.57753e-20)
(0.884752 0.0738677 5.00562e-21)
(1.15199 0.0373008 -9.16111e-21)
(1.02511 -0.00772056 0)
(1.07131 -0.0647223 -2.09363e-20)
(1.20129 0.00950285 3.03199e-22)
(-0.0122672 -0.073199 1.0425e-19)
(0.981716 -0.0733986 -5.89382e-20)
(0.806838 0.0594136 -8.63274e-21)
(1.22349 0.176672 2.32544e-21)
(0.0806212 -0.0329182 3.78161e-20)
(0.260135 -0.0385804 -5.31028e-20)
(0.465486 -0.0633095 -6.3794e-20)
(1.27416 -0.0131636 2.47152e-21)
(-0.0583732 -0.0440574 0)
(1.10032 0.14742 -4.83325e-21)
(1.09542 -0.176693 1.12121e-20)
(1.18026 -0.198136 -1.08114e-20)
(1.2507 0.145218 0)
(1.53117 -0.206284 8.30834e-20)
(1.1755 0.0348425 -4.13329e-21)
(-0.0203683 -0.0750201 -3.68189e-20)
(0.240556 0.0496723 0)
(0.916778 0.0452964 -3.14451e-21)
(1.11754 0.0191771 1.33483e-21)
(0.82438 -0.0347845 3.04282e-20)
(1.16963 0.0143893 1.85379e-21)
(1.1168 0.0534277 0)
(1.1878 -0.166702 -1.64795e-20)
(-0.0548552 -0.147591 -8.08777e-20)
(1.29435 -0.00101871 2.03954e-20)
(1.09639 0.170925 -8.59976e-21)
(1.10957 0.0628842 7.53814e-21)
(-0.0459437 -0.0840718 1.7531e-20)
(-0.0154461 0.00436729 -5.45784e-20)
(0.865277 0.17108 0)
(0.605668 0.136768 0)
(1.14775 0.102325 -2.29263e-20)
(1.05022 0.0689174 1.53242e-20)
(1.11456 0.0501364 0)
(0.7243 0.115333 6.55673e-20)
(0.710103 0.0754239 -9.64452e-21)
(1.09646 0.108405 0)
(1.0981 0.0636562 0)
(1.20269 0.0637041 0)
(1.15463 -0.0375914 0)
(1.15222 0.143664 3.57943e-21)
(-0.0421346 0.0412557 3.01112e-20)
(1.24828 -0.0501789 9.31735e-21)
(1.45967 -0.173751 -9.56709e-20)
(1.14652 0.0870932 -5.31149e-21)
(-0.0638049 0.180794 0)
(1.15902 -0.125024 0)
(0.627688 -0.0197587 -1.004e-21)
(0.52511 0.00627774 -5.23565e-20)
(0.0708398 0.0348894 4.28599e-20)
(0.939051 0.0208257 -8.28953e-22)
(0.767378 -0.27884 0)
(0.70752 -0.0933162 0)
(1.09029 0.0345707 0)
(0.533231 0.505168 1.19239e-20)
(-0.00689021 -0.0254886 -2.70523e-20)
(1.16991 0.133099 7.7385e-22)
(-0.0272792 -0.130594 7.10882e-20)
(1.18232 -0.0382894 2.06782e-21)
(1.16235 0.309309 5.29944e-20)
(1.11322 -0.0819502 7.95649e-21)
(0.219259 0.174179 6.52076e-20)
(1.1727 0.212604 -9.48401e-22)
(0.948691 -0.100695 0)
(0.5513 0.267321 0)
(0.814956 -0.100709 4.12014e-21)
(-0.19847 0.000429991 0)
(0.605646 0.0289905 2.69301e-21)
(0.619496 -0.429288 -3.62077e-21)
(0.234745 0.0480734 -1.01157e-19)
(1.13175 -0.228233 2.88301e-20)
(1.03051 0.353879 1.09592e-20)
(0.980526 0.0125847 0)
(1.15265 0.118804 4.23147e-22)
(0.638591 0.0179698 0)
(0.993986 -0.0260245 -4.59931e-22)
(0.470516 -0.0195673 0)
(0.712321 0.114395 0)
(1.00616 -0.0224202 -6.46557e-21)
(1.42005 0.178102 -8.35773e-21)
(1.1692 -0.056895 7.34464e-22)
(0.53443 -0.505865 0)
(1.13797 -0.151329 1.59782e-21)
(0.79904 0.36451 7.45037e-20)
(-0.0357117 0.0200783 1.02702e-21)
(1.24306 -0.00306536 6.73526e-21)
(1.22578 0.0471091 -5.23171e-21)
(1.25183 -0.0722203 8.09726e-22)
(0.801266 0.00746585 -5.97325e-21)
(0.0636632 0.0170917 3.27705e-20)
(-0.0159844 -0.11057 -5.7759e-20)
(-0.197932 0.0405331 0)
(-0.204307 0.178445 0)
(1.21013 -0.625595 3.53511e-20)
(1.15633 -0.0274819 -4.25921e-22)
(0.912137 -0.475258 -4.86537e-20)
(1.07826 0.0156761 9.80177e-21)
(1.34634 0.200381 2.68281e-20)
(0.59606 0.414097 0)
(0.242652 0.404338 -1.22058e-19)
(0.589894 0.463905 0)
(-0.0816744 0.0819701 0)
(1.13951 -0.485761 0)
(-0.0374621 -0.0801095 1.13303e-22)
(1.18342 -0.00139223 0)
(0.619469 -0.0372856 1.01421e-20)
(0.585797 0.678177 1.97636e-20)
(1.19016 -0.000539833 -5.83972e-21)
(-0.0269749 -0.164543 -1.23869e-19)
(0.297238 -0.302631 1.20106e-20)
(0.444643 0.142223 -1.21374e-20)
(1.20324 0.100359 0)
(1.34561 0.355255 2.59225e-20)
(1.20979 0.557429 2.51334e-22)
(0.160628 -0.0192454 -1.93368e-20)
(0.971145 0.115474 2.51099e-20)
(0.94792 -0.0365252 1.3446e-21)
(0.908793 0.0231617 -1.7637e-22)
(-0.00584585 -0.0452722 0)
(0.658886 -0.672889 -2.91448e-20)
(0.61271 0.183803 0)
(0.156322 -0.137623 0)
(-0.0390801 0.021074 0)
(0.0339466 -0.174826 -4.79248e-20)
(1.25132 0.00720656 -7.75318e-21)
(-0.0371532 0.0061518 0)
(-0.0210258 -0.0153876 0)
(1.44725 0.123352 -4.76518e-20)
(-0.0381366 -0.118803 5.56902e-20)
(0.112999 0.223721 -1.04349e-19)
(0.382545 0.0105547 0)
(0.173002 -0.293424 8.08571e-20)
(1.126 -0.242799 0)
(1.005 -0.290685 0)
(0.0348313 -0.146765 1.18351e-19)
(1.15059 0.0446873 -2.42853e-22)
(1.11543 0.334714 3.18427e-20)
(0.259067 0.0263492 4.14157e-20)
(0.412075 -0.532647 -3.37288e-20)
(1.23114 0.0931884 0)
(1.19701 0.189822 1.87977e-20)
(1.20263 0.210538 -2.30913e-20)
(0.101621 0.0744012 -2.38475e-20)
(-0.0615659 -0.110008 0)
(1.07303 -0.0539489 -1.93374e-20)
(1.10951 -0.22525 -1.42385e-20)
(0.590645 -0.423055 0)
(1.09985 -0.152274 -2.52226e-20)
(-0.147816 0.153055 0)
(0.548946 0.0221629 0)
(1.36167 0.0673603 2.69365e-20)
(1.00447 0.0439305 5.55058e-22)
(1.06518 0.732001 -2.23098e-20)
(0.230224 -0.392528 1.28341e-19)
(1.13778 0.0500671 1.38349e-21)
(1.20417 0.0829575 -3.11971e-21)
(-0.0371441 -0.0200171 2.62864e-20)
(0.776657 0.721742 3.54877e-20)
(1.37125 -0.366569 -1.40788e-20)
(0.190864 0.382691 7.92319e-20)
(1.10357 0.0163514 0)
(0.0702418 0.0865434 -4.40423e-21)
(0.919875 -0.649401 3.26574e-21)
(0.888837 0.633237 -1.08238e-20)
(0.583487 -0.0326358 -7.01973e-20)
(1.1458 -0.000863235 -8.83823e-21)
(1.0764 -0.0806946 6.76123e-21)
(1.1649 0.0243232 3.59599e-21)
(1.10357 0.121862 7.11808e-21)
(1.13543 -0.120223 0)
(0.889367 0.104671 1.21906e-20)
(0.875674 0.453679 0)
(1.23237 -0.0214135 -3.35974e-21)
(1.16464 0.117656 3.84889e-21)
(0.741663 0.261261 0)
(0.512538 0.108184 9.6459e-20)
(0.883028 0.699693 -1.13476e-21)
(1.0685 0.284616 -2.44548e-20)
(1.04088 -0.00769363 1.23484e-20)
(0.411157 0.473585 0)
(1.31825 -0.47615 0)
(0.597508 0.151838 3.96671e-21)
(1.24987 0.498805 0)
(-0.019776 0.0314529 -3.66895e-20)
(1.30245 -0.416252 -1.42646e-20)
(1.15414 0.501287 0)
(0.452374 0.198032 1.73604e-19)
(1.10908 0.312709 -1.05199e-19)
(0.828446 -0.65776 -2.44137e-20)
(1.15638 0.0178398 1.30665e-21)
(0.901379 0.148629 7.05336e-20)
(1.08228 0.166232 6.07822e-20)
(1.05881 0.694009 3.1244e-21)
(0.916315 -0.451304 6.33927e-20)
(1.40545 0.200502 2.66743e-20)
(1.13223 0.00944889 -1.5849e-21)
(0.0071144 -0.0836098 1.03147e-19)
(1.10255 -0.715341 3.33307e-20)
(0.886648 -0.736064 4.89593e-20)
(0.25659 -0.357269 0)
(0.974387 -0.153113 7.26329e-20)
(0.359335 0.287979 -4.50567e-19)
(-0.0457992 0.0141351 3.20953e-20)
(0.220967 0.0109113 1.82023e-20)
(0.710346 -0.0588432 -8.23019e-20)
(1.06839 0.518932 0)
(0.985776 0.215275 8.67329e-20)
(1.08439 0.0314644 4.66698e-21)
(0.900801 0.42982 -9.6057e-20)
(0.799396 -0.742098 -7.40396e-21)
(0.928448 0.0133 -4.99401e-20)
(0.969232 0.478124 0)
(1.11335 -0.0973983 5.94689e-21)
(1.4036 -0.517741 1.49545e-20)
(1.24097 -0.342629 1.07045e-20)
(-0.25987 0.237554 2.86389e-20)
(0.195699 -0.019865 -1.84159e-20)
(0.980062 -0.12438 -5.9059e-20)
(0.346639 0.509066 0)
(0.914952 0.00499117 3.97908e-20)
(1.14371 0.628925 6.56479e-20)
(-0.0171376 -0.100843 1.73989e-19)
(-0.0606424 -0.0550862 -2.17558e-20)
(-0.0894073 -0.170723 4.37173e-20)
(1.09843 0.0257304 -6.44131e-21)
(1.15803 -0.469469 0)
(1.08539 -0.749384 -3.70726e-20)
(0.693984 0.334244 0)
(0.101154 -0.0990412 -1.30964e-19)
(1.14955 0.0416252 3.62326e-21)
(-0.042234 -0.17336 -3.31053e-20)
(1.04688 0.0567976 -1.17911e-20)
(0.106673 0.0154403 4.77089e-20)
(0.830226 0.121915 0)
(1.33826 0.0440003 4.29009e-20)
(0.0210268 -0.00356321 -2.06689e-20)
(-0.240974 0.156251 -3.40162e-20)
(-0.24868 0.170095 0)
(0.0893026 -0.0229957 0)
(1.29693 0.0265953 -1.36534e-20)
(0.402827 -0.0105375 1.70276e-19)
(1.2909 -0.738668 -3.0025e-20)
(0.871751 0.153683 3.97526e-20)
(1.06257 0.245151 -3.51761e-20)
(0.376522 -0.580001 1.3834e-19)
(1.52387 0.284455 -2.73065e-20)
(0.09981 -0.111106 4.03995e-20)
(0.206045 0.284976 2.00995e-19)
(0.121753 -0.0681884 -1.50248e-19)
(0.953803 -0.505035 -4.28001e-20)
(1.43558 0.385832 2.78943e-20)
(0.579993 -0.695483 4.72351e-20)
(1.10761 -0.0767429 -6.96008e-21)
(0.341542 0.00695757 7.17854e-20)
(1.16305 0.287325 -4.172e-20)
(0.654427 0.624473 -4.3766e-20)
(1.36576 -0.632515 0)
(1.3994 0.514676 2.9485e-20)
(1.0687 -0.539149 -1.32118e-20)
(1.37213 0.600099 -7.98165e-20)
(1.16001 0.0126416 0)
(-0.0443253 0.0170313 0)
(1.23689 0.720151 0)
(1.15469 -0.0612189 -1.03487e-20)
(0.750688 -0.317125 -2.07422e-19)
(0.478421 -0.100964 0)
(-0.0513312 -0.00273857 -2.22914e-20)
(1.02556 -0.24996 9.71581e-20)
(-0.230659 0.216742 0)
(0.321848 0.00480356 1.24404e-20)
(1.13116 0.0201595 0)
(1.39323 0.273681 0)
(1.17129 0.0171202 -1.39929e-21)
(0.365834 -0.313499 0)
(1.00925 0.145735 4.1797e-20)
(1.29011 0.285468 0)
(-0.0828752 -0.0378385 7.03056e-22)
(0.819839 -0.412281 0)
(1.49651 0.342528 -4.14701e-20)
(1.22799 0.362128 6.12101e-21)
(0.831447 0.631408 -1.05525e-20)
(1.00504 0.154967 -9.57037e-20)
(0.971952 -0.210441 -4.74159e-20)
(1.43233 0.295106 2.43874e-20)
(0.94421 0.0774438 0)
(0.564742 -0.0878165 0)
)
;

boundaryField
{
    FrontBack
    {
        type            empty;
    }
    Top
    {
        type            noSlip;
    }
    In
    {
        type            fixedValue;
        value           uniform (1 0 0);
    }
    Bottom
    {
        type            noSlip;
    }
    Out
    {
        type            zeroGradient;
    }
    circle
    {
        type            noSlip;
    }
}


// ************************************************************************* //
