/*--------------------------------*- C++ -*----------------------------------*\
| =========                 |                                                 |
| \\      /  F ield         | OpenFOAM: The Open Source CFD Toolbox           |
|  \\    /   O peration     | Version:  2412                                  |
|   \\  /    A nd           | Website:  www.openfoam.com                      |
|    \\/     M anipulation  |                                                 |
\*---------------------------------------------------------------------------*/
FoamFile
{
    version     2.0;
    format      ascii;
    arch        "LSB;label=32;scalar=64";
    class       volVectorField;
    location    "913";
    object      U;
}
// * * * * * * * * * * * * * * * * * * * * * * * * * * * * * * * * * * * * * //

dimensions      [0 1 -1 0 0 0 0];

internalField   nonuniform List<vector> 
808
(
(0.7562589377366404 -0.01750108175489911 0)
(1.0315274342293 -0.01262546715860812 0)
(1.111604193930185 -0.006525500466674327 -1.743896404171001e-20)
(1.085119825207 0.01260332985995812 0)
(1.364488263867804 0.01460269401225057 -3.867899862969679e-19)
(1.038746315019309 -0.009364572195462979 -7.248736750000096e-20)
(1.014052632151568 -0.0211222337107418 -2.384158938127572e-20)
(1.079104365995842 -0.005418765515677779 9.035562578185844e-21)
(1.254851552357372 -0.02020307568882753 6.316768479238877e-20)
(1.085068925406927 0.01029545083313366 0)
(1.010006083387241 -0.007724182800955137 0)
(1.30653893506578 -0.05334074672776369 -3.517180281861337e-19)
(1.086236619036586 -0.002003161768100968 2.039696863457584e-20)
(0.6751903413995746 0.006368426745104836 0)
(1.279109171735412 -0.1141716785712592 0)
(1.081488993528593 -0.0002608906619162412 -3.846725298490461e-20)
(1.226327392082081 -0.1432178394462237 -9.505132938077984e-20)
(1.073952817256798 -0.0001228085722952753 3.19059090153015e-20)
(0.9909571771883129 0.003577371617615272 0)
(1.026339689422665 0.009676663788020776 0)
(1.03384382444568 -0.01046032317583385 0)
(0.9875129139320369 0.04461102466630583 0)
(1.051126263830801 -0.005924009434691233 5.640676040630819e-20)
(1.053598293456479 0.009265024455424741 0)
(0.9327274375523453 0.1971815941112382 4.59766159690698e-19)
(1.165045221760728 -0.08447508157517464 0)
(1.186166264220761 -0.01873065212938158 1.568231587440534e-19)
(1.077393204649697 0.009538550054817381 5.208820480433733e-20)
(1.083672966382968 0.002314543604178538 5.082287119391355e-21)
(1.071778806484944 0.03088105641468333 0)
(1.075328723423214 0.002812064654436558 -1.177098690978494e-20)
(1.033042067868804 0.006864889577240486 -1.926463235785242e-19)
(1.059985139781785 0.01468449355355357 -2.365639525967197e-20)
(1.088985391722454 0.005594934864133237 -2.933822312515505e-20)
(1.120895233993446 0.03922783907713574 0)
(0.7550817423913135 -0.1238296223822686 -4.542045855838449e-19)
(0.9547989332276774 -0.005872308653817604 0)
(1.068798732548695 0.02224603395549781 0)
(1.068804180951317 0.007304068585617093 0)
(1.073719337284401 0.008915963002000234 -2.830111960082729e-20)
(1.092644656811297 0.02465354598446277 1.102205615206493e-19)
(1.151057849012823 0.003618356481880713 2.159130549223885e-19)
(1.096011623285563 -0.00226410312725723 0)
(1.01546058513995 -0.009086777280123028 0)
(1.13347259696256 -0.0935533824546545 -1.622597795510671e-19)
(1.044094929457652 -0.01159596102133045 -8.112870176515095e-20)
(1.058125252747863 0.02662149184160916 -2.744339049471389e-20)
(1.231608153372845 -0.1122748919188348 -5.593638712899909e-20)
(1.067563848393962 0.01207058655773635 -4.177037210974436e-20)
(1.2584598463023 0.01734375231509874 0)
(0.9964491994082875 -0.01916595981581255 2.163394450865508e-21)
(1.044710894021186 -0.001874104122643869 0)
(1.087616420909697 -0.002066054022033423 0)
(0.9994746937139155 0.007066833334115624 -1.84104760592617e-20)
(1.250393514239476 0.03417535718953005 -2.34860617007696e-19)
(1.063515310020961 0.01808349956504041 6.025708612148133e-20)
(0.9921256411631668 0.01018645139865001 0)
(1.019123900820816 -0.00671204014294127 2.415929994994939e-20)
(1.107577771974507 -0.0002995412996886315 -1.182506872580936e-19)
(1.061092929270355 0.03105935845109223 0)
(-0.08838448663920084 0.00982844785965295 7.545855993604722e-20)
(1.155168054594529 -0.05181102359355255 -1.889533042745619e-19)
(1.006983175097781 -0.006174405056593679 -2.65343878308131e-20)
(1.186665889046038 0.06980768148636433 -1.227291701876654e-19)
(0.9977847817019518 -0.009293284489575263 3.052816090595258e-20)
(1.084331840390503 -0.005479988612565989 0)
(1.248757551056048 0.09769322356227376 0)
(0.6960802249969539 0.003186504260558085 -7.451879559866536e-20)
(0.9888663238443471 -0.01351256738966137 -3.180842573990931e-20)
(1.460953529225357 -0.01857140528094118 4.454535840512117e-19)
(1.060471482457569 0.007609638219475727 -6.674376213640943e-20)
(1.368869216896068 0.0960449541099289 2.882537746574459e-19)
(1.054786226433519 0.00688200666148057 -1.934334458164497e-22)
(1.081119562288978 -0.01385233180619641 -3.509593194432274e-22)
(1.165225126214638 -0.2364729828355222 0)
(1.021724541410801 -0.01485485970291965 0)
(1.016956533967584 0.01787225126738229 -3.07588369642295e-20)
(1.38537137352275 0.3484562436877871 4.176943460117965e-19)
(1.097272916096655 -0.04246301876525836 9.455014594529858e-20)
(1.045445895558421 0.2093198040155295 2.499547107254194e-19)
(1.124950924066875 -0.06016346189992592 1.159891818613965e-19)
(0.9219410379749615 0.005135959127561345 0)
(0.9753445545032174 0.01850762427015397 0)
(1.004096133430728 -0.0488665675109277 2.868750645032911e-21)
(1.009875194493177 -0.01325593141536533 7.665518930878526e-21)
(1.02985363490585 0.02670635527599642 1.381171648008517e-20)
(1.53024687218032 0.03544023911403027 3.249604341284129e-19)
(1.288783946337705 0.07123579547933549 5.541984076911493e-19)
(1.072303984805281 0.003112249271962597 -9.070235225249187e-20)
(1.197308044501162 -0.09223860363523267 0)
(1.033719234648227 0.001932668876204431 1.324353793261858e-19)
(1.165259574580102 0.02235236686551314 -3.192163202062793e-19)
(1.001445714761271 0.03236986478904903 0)
(0.999625950833991 0.002033220460395758 0)
(1.044464423719524 7.322583422390882e-05 7.829442840636999e-20)
(1.214496835876164 0.1116627520035653 4.144826184103866e-19)
(1.011089865816402 0.006991546201469251 0)
(1.092192575979079 -0.06853188160128813 -1.053606949281356e-19)
(1.150953149993379 0.03793940581995844 0)
(1.214987840186957 0.09592897466572324 -1.946928982722707e-19)
(1.108187955822944 -0.02880286396910377 -7.728294956848925e-20)
(1.027216499662456 0.01183310975213245 0)
(1.08500624009499 -0.004606027814690701 0)
(1.018875504870312 0.02619374275792987 8.023349355275723e-20)
(1.071674311998551 0.0559395381657499 -9.603136671038835e-21)
(1.10382725896394 -0.004128085003705045 6.309262727898297e-20)
(1.111077337281141 -0.09317915493447561 1.49555010833291e-19)
(0.9637348501881849 0.00482824663423085 0)
(1.065975643459991 0.03113642326028038 3.785986285291985e-20)
(1.16915829864486 -0.0764945401369706 2.309306232581128e-19)
(1.051174342230364 0.04660238356574518 -2.893001234357113e-20)
(1.02264606654468 0.06741011509598249 3.714747155221604e-20)
(1.090216063039238 0.02601945219341627 0)
(1.017553185855163 0.01669076426881539 0)
(1.029001999594437 0.009388783070374503 7.869427222518805e-20)
(0.9486245515226123 -0.03340558275114769 0)
(1.05272391609088 -0.005552168727493777 -7.698754323268026e-21)
(1.342993014944678 0.05825015785887523 -1.568875571319234e-19)
(1.079895435807881 -0.01312183745480361 2.636049728847611e-20)
(0.7439446559359515 -0.001724702979650413 0)
(0.5884994995662333 0.1922144965580017 -1.040046903496555e-19)
(0.7062092665110303 -0.002511287499448234 0)
(0.6987685245901717 0.01462371663503527 0)
(1.077639388486543 0.003675528007650359 -6.663363708587575e-22)
(0.9906491634786018 0.01451805558035338 0)
(1.278198512144483 0.122562206441393 2.505094278299465e-19)
(1.012318586708728 -0.02781413735533257 -7.700409824127839e-21)
(1.046124358862659 0.01936142048168514 1.726906851719023e-21)
(1.058701857664126 -0.01174687736228675 0)
(1.126654487874137 -0.009108789794563818 -5.028942852355797e-20)
(1.270563908252932 0.1377780145321211 -2.294461262835718e-19)
(1.089352908500695 -0.01110681380346168 -8.591074769578724e-20)
(1.070188780707443 0.02683885435028241 -1.092658862180155e-19)
(1.04079435401668 0.04675606560442222 7.07737557955333e-20)
(1.022619622918427 -0.003760943453914264 -3.465823840182615e-20)
(1.060848890983554 0.02356386294277026 5.92994436269776e-21)
(1.133386522122255 0.001045803038713567 1.04732117657264e-20)
(1.039129332974473 -0.01555773583619374 -4.819090559593663e-22)
(1.087397128772785 0.03472041649178047 0)
(1.028031180342724 0.01368270448295127 0)
(0.7681180111190705 -0.06840882804891965 -1.805640152866622e-19)
(1.030211257390871 -0.001621575548916148 -6.774248598603605e-20)
(1.129429298351923 -0.005434722442630605 -1.257515037022693e-20)
(0.7034170702715231 0.006574781534704427 7.278426381713338e-20)
(1.174696828070534 0.02013482978679262 -1.935364871321929e-19)
(1.136032229398575 0.007513092547665917 5.03189927532464e-21)
(1.128973174969715 -0.01001214602893752 3.434314412935942e-20)
(1.000936309909488 -0.002939985453193183 -7.261536797267694e-20)
(1.103192228944342 -0.06410206638599852 0)
(0.9880830142971985 0.004789697138546857 0)
(1.05783229659943 0.007053847988459584 0)
(1.005393152004916 0.1879616675739532 -2.439906662210529e-19)
(0.779168374892615 0.01242241867209351 0)
(0.8569235526241873 0.1006243079179218 -8.378280059327081e-20)
(0.07867350938858526 0.03605767826755377 -2.979684536012716e-19)
(1.172000069789268 -0.02996431819317048 -2.251364892644627e-20)
(0.6713154111121363 -0.007301924667241298 2.444453378956777e-20)
(1.168872593568925 -0.09995361612007808 6.868678507361877e-20)
(1.123194163976775 -0.003749807981170803 -5.729612691600572e-21)
(1.154541491390285 -0.04797740270152359 2.187765625999357e-20)
(0.0997953779237629 -0.220946682681157 0)
(0.2384773092296647 0.07654614650941609 0)
(1.260727403989382 0.1105742986988977 1.908673472975691e-19)
(1.021092240100078 0.01979018389322594 0)
(0.7378413604225444 -0.006254320798952451 0)
(1.075312816195495 -0.01156740848523343 2.726347800978306e-20)
(0.9747556004283325 0.00282684980078933 0)
(1.297530440086251 0.1273505946874693 -1.557466281225349e-19)
(1.057418526977008 0.0110648839371712 0)
(0.9936884721031004 -0.00696522431024176 0)
(1.065020113769644 0.008338630369187416 0)
(1.006187923004222 0.02084647218464701 1.93384940875366e-20)
(0.9383477901052092 0.01601014833722858 1.158723551334415e-20)
(1.17739439115167 -0.2000538760699118 0)
(1.005196339155965 -0.005180036907796247 7.928860125892249e-20)
(1.059136962748472 0.006418652711551597 0)
(0.7746628476844362 -0.003277561434481067 0)
(1.21823432757986 0.02842443376615155 1.651819855747927e-20)
(0.7049442613802616 0.001357225792782099 0)
(1.436056500006135 0.08667892633808566 -5.223531458820218e-20)
(0.9952511310070052 -0.006058112928099225 1.69962765740373e-20)
(1.273132745173251 -0.001833586718975899 -2.958138637340087e-19)
(1.059507301010879 0.009001911173864495 1.364831945091137e-19)
(1.000911796588619 -0.01356000422452103 0)
(1.212303437701537 -0.1405912461732567 2.045894863980203e-19)
(0.7331896981646909 0.01378664352125218 0)
(1.09852966117816 -0.004987858955754168 0)
(1.154119640849731 0.06940281847687266 1.962725973948594e-20)
(1.006859958158896 -0.006458606900410628 -3.034904194772773e-20)
(1.121368248989326 0.05317188955085028 -1.749362643976558e-19)
(0.0998667724297166 -0.08982759295741378 0)
(1.072285323172229 0.03922266490320393 0)
(0.6617831264812853 -0.002905079059662365 -5.881817473901255e-22)
(1.012157866523491 -0.01941227458712196 9.437101819945021e-20)
(1.061304914447511 0.0008201125182205741 0)
(1.074922589095563 -0.1297340179348913 3.721460982280424e-19)
(1.002833259069841 -0.006175607523768917 -3.382439935259251e-21)
(1.003225435144752 -0.004920222929240509 7.346517862041698e-22)
(1.093937005195241 -0.009289780423597118 0)
(1.020680369700954 0.0205371570371934 -6.426141882971901e-20)
(1.106542502832747 -0.001566669649813605 6.537311724445874e-22)
(1.074612993942391 -0.01120169746611748 6.634622281501241e-20)
(1.085739009129129 0.02223365324425009 0)
(1.330202724462287 0.1601390667237042 0)
(1.002024544323705 0.0002751923375885735 4.415387049168008e-20)
(1.318947375695306 -0.1276634054510429 1.571135471348209e-19)
(0.0315747794081266 -0.1850320776409212 -2.420354968462895e-19)
(1.071198245250285 -0.005400098729846743 0)
(1.113540682339999 -0.004725960171946598 1.176046133281069e-20)
(0.7267552797927446 0.01780592851605002 0)
(1.060459492216074 0.0098084286445784 0)
(0.8666124799291377 0.1639104258487556 4.670585017282707e-19)
(1.278289405047876 0.1326585956923588 1.932883422397844e-19)
(0.6543395017226907 -0.003096320331652472 -6.430450883881392e-20)
(1.040082901956122 0.003114107468770929 -6.522340246482861e-21)
(1.054729104840511 -0.0002408571344002567 6.542073390522276e-20)
(1.364429789838472 0.120739474796542 6.686684920342001e-19)
(1.334373567254603 0.2519219992613515 0)
(1.05982165398616 0.004672876220252807 0)
(1.000686753529072 -0.005428742236364742 1.458912935966966e-20)
(0.9927516671677079 -0.005572809482962857 4.892520774361961e-21)
(1.382210183512076 0.1996219118845244 4.273166862133215e-19)
(0.6818246161003052 0.0004669136621169567 9.91902597913237e-20)
(1.005626098029458 -0.002188467579438131 -6.001893653962455e-20)
(1.098236436286185 0.01309081499353379 2.556419773807467e-20)
(0.6694603180760682 0.004968083191840771 0)
(1.066090075924131 -0.01201433916264859 0)
(1.017358562634902 0.1520736653876818 -1.366614913450642e-19)
(1.092168972508081 -0.006445459958935878 -2.526487857115184e-20)
(0.982055028561408 7.90055264975369e-05 3.294542072437073e-20)
(0.9912113889401034 0.006027205305579619 0)
(0.6382041760457451 -0.001070866704985471 0)
(0.9767244418648889 -0.001186607361858544 0)
(0.6421283020605286 -0.00145115803755889 2.648085842629831e-21)
(1.089696914113772 -0.05535115338611851 1.199699834001901e-19)
(1.112182887598598 -0.003594483236088685 1.165747931581905e-21)
(0.9579075625868001 -0.0008714752756996818 3.890348328038484e-20)
(1.016785641563018 0.0100259343385461 1.729583245515432e-20)
(1.067064670403288 0.002344461181403466 -2.549033325976624e-21)
(0.6347139151198046 0.008877143432119835 -3.625196822925688e-20)
(1.005434129828537 0.008465337914830218 -7.857493961305419e-22)
(1.036992371252233 0.006497704816485822 5.420158068803254e-21)
(0.9860283329791528 -0.009902348135161568 0)
(0.6099482963949316 -0.0004659053974034801 0)
(1.068818551885365 0.02251330229004874 0)
(1.016863289633946 -0.01660282998365622 1.03442317287689e-20)
(1.023811336119554 -0.0100101680464756 0)
(0.9920906053942562 0.01345512466003484 -9.886607569452744e-21)
(1.009416526263109 0.001013093254472977 0)
(1.131684978813429 0.002650560903865378 -1.157145705482293e-20)
(0.03620312183565949 -0.1438724668787546 -3.81931813705417e-20)
(1.035111072484327 -0.01856946434132688 -5.887878081441385e-22)
(1.041116414674384 0.004803399221168292 0)
(1.081249863466228 0.06912094450787988 8.468900379175758e-20)
(0.9673381420436911 -0.00221509659050054 3.108535577849135e-20)
(1.020241042945444 0.01667430237782866 -2.307947398032021e-20)
(1.002648318924459 -0.002478762503909804 2.447734960245156e-20)
(1.039241316572249 -0.007832113326840334 0)
(0.6408815096773265 -0.004056398965381536 0)
(1.025839510619103 0.0245363268194313 -7.545063456323201e-20)
(1.087364701601573 -0.005937605624940739 4.968313908066815e-20)
(1.015565035648795 0.006916226734832921 0)
(0.979277185982948 -0.00146941956771921 -1.955444380918498e-21)
(0.860399294658134 0.01029706135291572 -9.129926054459759e-21)
(1.014019323463489 0.002566069717410825 -9.735486725029469e-21)
(1.022803171308146 0.005631523109588934 1.880134478775402e-20)
(0.9846284791975934 0.004531647242392351 0)
(1.00491341664138 0.01206797668999885 3.368009738921605e-20)
(1.11076548883783 0.0005815992142425087 0)
(0.9290440417823793 0.007710377040414265 -3.086607536475117e-20)
(0.9555641893360785 -0.0004442145716876341 0)
(0.9085720944118326 0.2059062827595623 5.044478804316427e-20)
(1.010879261816322 0.06697004669203103 0)
(0.9920942002922891 0.004921683866292327 -2.265448643866839e-20)
(1.05926806473378 -0.05185908384827054 -2.867119638580817e-20)
(0.9929977514628201 0.0009046576154229665 3.289025569165072e-20)
(1.009138193506936 0.007157163217308558 0)
(0.9787823433966354 0.0008092037166136181 -3.051356023594627e-20)
(1.173622666966899 0.1049904205567467 -3.433100481237415e-19)
(1.069748491038075 -0.2652945347725238 0)
(0.9932904996508558 0.0004665591693311331 -2.262359612169523e-20)
(0.9740120024560053 0.0009363212718717697 4.91139480059608e-21)
(0.9631392319046915 0.002838332928328731 9.929014416684238e-22)
(0.7459328072429889 -0.001045135298257612 0)
(1.124213226419891 -0.07604352427925076 0)
(1.002706961038779 0.002466898159392851 -2.267594596445268e-20)
(0.9091763649220719 0.01316569178663492 -1.001402515008408e-20)
(0.8467791924261053 0.002969763713109835 2.47668889026246e-21)
(1.014254540434221 -0.008390951461501669 0)
(0.9576948933868743 0.012763969585869 1.410169471317959e-20)
(1.005548402596063 -0.000234024842518182 -2.275210161851073e-20)
(1.023724301825027 -0.003563065172635344 -2.530084567201716e-20)
(1.115097989432477 -0.001386636141119149 -4.933830240155996e-21)
(1.119204860789682 -0.001286620459148186 0)
(1.012453421965018 -0.008321407129961614 0)
(1.019927768067731 -0.000422742570180593 0)
(0.9415832575156684 0.0004197910501195437 -1.988028161964082e-20)
(1.017850952792128 0.01360576821931322 5.458176524276667e-20)
(1.086300527413268 -0.006104785766435195 -2.297411324642135e-20)
(1.040409985735957 -0.008839775760910596 0)
(1.107901212026332 -0.002953301816793249 1.853402543104452e-21)
(0.9942561213844651 0.00204411646850333 -2.23495355964094e-20)
(0.9841369899992185 0.002086977039502838 0)
(1.010529102851179 0.003176744589795731 4.663658374085046e-20)
(1.36648936015008 -0.3146149150456682 -1.127859969769083e-18)
(1.12177521442657 -0.04317657617894703 -1.092278021180323e-19)
(0.9659952987136629 0.005621056881436481 4.442722203377659e-20)
(0.7650073987421602 0.001324212124866223 -3.225615175577442e-20)
(1.223731543952481 0.05256587337916973 0)
(1.222801633031143 -0.1265588021276218 -1.468768620277526e-19)
(1.081768192494257 -0.00246365195493723 0)
(1.008098480914063 0.0007648885787225444 2.286955913306224e-20)
(-0.1904027012066379 -0.1381578737836272 0)
(0.9939667479692287 -0.004655600355293643 0)
(1.012398091835748 -0.02310559074857604 4.28928163096784e-20)
(0.7064182656680418 -0.01945566315827512 0)
(1.096789513584951 -0.01478508577003811 2.175627806211297e-21)
(1.041646899712542 -0.005847123933461581 1.754689025079589e-20)
(0.6332208937312824 0.00411829765886954 0)
(1.449100168055265 -0.1235042222669527 0)
(0.9861149239932177 0.001483483453993596 -1.074545737383678e-20)
(1.069785677169552 -0.0150857919266109 0)
(1.037787771810577 0.0004123279040389595 2.089291646928321e-20)
(1.081191243903883 0.00456928123481954 0)
(1.011921647724195 -0.0001269413785096333 -1.097969771077651e-21)
(1.005788596136669 0.003146718839922665 0)
(1.008800478596998 -0.001511053078500191 -8.078472718339002e-22)
(1.004384363560211 -0.02075879431575724 0)
(1.036229854613069 -0.00419674047220823 1.708301015816375e-20)
(-0.1764276855391615 0.02928359098153803 2.708032003381967e-19)
(0.7972877822396416 0.02091400713533691 5.438734206356013e-20)
(1.005418135319322 0.001836080334864828 0)
(1.127106244874538 0.0113631730142339 -1.133705565152822e-20)
(1.117518093514801 0.00824203744997686 8.571860483492261e-21)
(1.054556395601265 -0.01281183286528032 -1.300115012553682e-19)
(0.9987783927513403 0.01037291865985424 6.085685850835067e-22)
(1.07956769901994 -0.0002898588493727397 0)
(1.188270311474394 0.05331572938412428 0)
(0.8353090186130682 -0.07642171500417697 4.59782939489797e-19)
(1.091233396251533 0.001093466081889787 0)
(1.03378496670417 0.007464902372354524 -7.542728878836151e-21)
(1.04242327449697 0.005225927863171955 5.872052688289645e-21)
(1.055772486428193 -0.05957641337459482 -7.565690292179341e-21)
(1.139283795455611 -0.0009574412557954793 1.690197512146867e-19)
(1.086318356489402 -0.003627373664764745 0)
(0.9941911666460792 0.001620635052418115 0)
(0.996845730623191 -0.02673571528360525 -2.388113754852292e-21)
(0.990055988350392 0.003394021767991322 0)
(1.031493961282043 -0.03769342550335541 6.426724006837083e-20)
(1.290664403537514 -0.09428602899250257 0)
(1.041220477044577 0.0007903586111495585 -4.405324864097973e-21)
(0.9861754050357573 0.01700849296988446 -8.734248592303921e-20)
(1.032724418629267 0.04214753820235882 -2.374721880726742e-21)
(-0.07591856840742439 0.1601840007799548 -1.700684663770971e-19)
(-0.07096913337198618 -0.2993613190416134 -1.315316340151726e-19)
(0.8966397689924239 0.1353830203365496 0)
(0.2855442091573924 -0.03652224982111701 -3.247145450518741e-19)
(1.005174793907392 0.001105773961438424 -1.21772359674318e-20)
(1.063842587969159 0.002720124615837254 -2.090782572207561e-20)
(0.9912985705861956 -0.02025862903511652 3.053922279434407e-20)
(1.023772936639153 -0.0318349764410174 2.637549562989087e-21)
(1.010180553986425 -0.0317034533874968 -6.606218523331151e-20)
(0.9888778680297798 0.00482158345905556 -3.476489983220303e-20)
(0.9930955388627989 0.005223585126766662 0)
(1.025002929146024 -0.002376609387724369 -3.480423831891601e-21)
(1.93662378268412 -0.1562032799166693 1.073557473307158e-18)
(1.043204612467557 -0.001084649745916933 0)
(0.9958986702075715 0.008558227310591438 1.528956316688237e-20)
(1.003506299934348 -0.0003986828096026494 4.01912390926972e-20)
(1.16086675055365 0.1533544228309781 0)
(0.999985375027739 -0.007322635365824478 8.306244694049456e-21)
(0.9506986910483465 0.001937782164960917 0)
(1.037837656738316 0.04175644044770116 0)
(1.309936132098925 0.157952375751715 2.331968322228255e-19)
(1.08131348010297 2.864290523983234e-05 2.313267860429653e-20)
(1.016795770928697 0.02969992742366841 4.563539138838485e-20)
(1.08467192149974 0.0001064851695495205 -2.229413820153747e-20)
(1.050506356153138 -0.01406768019491529 -8.977662571199953e-21)
(-0.386086676950421 -0.05226032986479472 0)
(0.9997265873547528 0.01351603407735372 0)
(0.1137854054400018 0.05393366393893715 -9.180245174682539e-20)
(1.006889316348609 0.02049588450603667 -4.094027287685886e-20)
(1.002161281253687 -0.02315848763296013 0)
(1.00150084115675 0.005435912306548561 -4.927009417199141e-21)
(1.081972155258175 -0.04249424046754941 0)
(0.9940125943263829 -0.01734257816403818 -7.9728027502755e-21)
(1.101532316171005 -0.05834896573964623 0)
(1.445462858534057 0.1737985591987427 0)
(1.05485984946157 -0.01217984417052504 0)
(0.9906097026501507 -0.02474792948562165 -4.101802069312453e-20)
(1.000281339438575 -0.04066793154305179 -3.389601261331863e-21)
(1.014160847593374 -0.02051798503188771 -1.961836304277715e-20)
(0.9967044149937647 0.01659869899830024 -5.549082372431183e-20)
(0.9959502584305288 0.010292125368968 -1.49007614935033e-20)
(0.9949275650169319 -0.02862781438433492 0)
(1.002388508555216 0.02366637577660764 1.922807026895094e-20)
(1.055028672057562 -0.03471676677857356 0)
(1.111393941485795 -0.03586552468890013 2.590169939501953e-19)
(0.9956613187601191 0.01668130162108119 4.574551363339207e-20)
(0.6150411028254246 -0.008689576095040893 0)
(1.144404832178752 0.1600804961266714 -1.354116957293789e-21)
(0.8451153826208254 -0.08493055991018453 0)
(1.137819834341686 0.07296886548054457 -2.729264811465141e-19)
(1.316938829873711 -0.3895625319226512 1.293924314298076e-19)
(1.068731093372058 0.06405542211184294 -1.248707392321704e-20)
(1.011459878929778 -0.03198921674036687 0)
(0.956114566374925 -0.2163857823759169 0)
(0.5298791700730545 0.1661580474899535 0)
(1.016529764983221 0.01040625431344489 1.241425211449401e-21)
(0.6947703991509375 -0.02604414629652206 0)
(0.9995390768191241 0.01676855430874643 3.524946914025657e-20)
(1.027291124700431 -0.004027557777837978 -2.749711804138488e-20)
(1.078961803444258 -0.008074559804306422 2.719395233188883e-21)
(1.051126812482422 -0.0268975132369652 2.874604499752516e-20)
(1.042566088227347 0.01180844491768798 0)
(1.063017627029037 0.02159567563607885 -8.833239981958696e-21)
(1.049622883629086 0.03619515059209087 -1.803856954737152e-20)
(0.9835355065718654 -0.02278571100947081 0)
(0.6249001782664045 0.005098081587364536 9.16992638297177e-20)
(0.8941495908013039 -0.00592250522325923 -8.845437603087138e-20)
(0.9093787406255118 0.005264993705312788 1.450856229856225e-20)
(0.6296085019520891 -0.006435251020233794 1.407282382580287e-20)
(0.9806787762359926 0.0009329849927479287 2.488043282348625e-20)
(1.00442685280437 -0.01746463715756634 -3.481201784451022e-20)
(0.9839684046396955 -0.03797549030905149 -3.097558617429181e-20)
(1.085596913955068 0.001656293930736883 0)
(1.020028558598231 0.005104268925555884 1.014511168770467e-20)
(1.132220488852771 0.04878795509698312 1.319244661169004e-19)
(1.031132382608398 0.04104621119204192 0)
(1.022656032086456 0.002554109610589949 0)
(1.585543279742521 -0.1678836424294925 4.397809058130862e-19)
(1.059388756211489 -0.04686416490861785 0)
(1.017794356430351 0.009995438285436031 -3.752158561986998e-20)
(1.082581852269995 0.006407584497300676 0)
(0.4886852128362817 -0.008720936440988213 0)
(0.01223021328807723 0.0217600371417843 0)
(0.9913575962514983 -0.02410659604992494 1.231313069033027e-20)
(1.302334157141897 -0.09612475051425336 3.72512444369832e-19)
(1.032441616023957 0.03484932430710762 0)
(1.02230589440362 0.003543840230167898 -2.218168728650348e-20)
(0.94506212362652 -0.1602277513494288 -2.290011746247305e-21)
(1.256920731043273 0.07724559439353632 0)
(0.5967883614952425 0.7282432496692645 0)
(1.312444111750626 0.1450494297227631 1.0703265718289e-19)
(1.678713828576052 -0.025786028576993 0)
(1.051947957156746 0.1208764406427585 0)
(0.7130929896181081 -0.01871314631777071 3.985112592718836e-21)
(1.04746960205241 0.04403550793052974 0)
(0.7596310832668628 0.1259466655704082 1.328258374926517e-19)
(0.9967788657213729 -0.01646381542601725 3.577111576714996e-19)
(1.038538923130892 -0.04164172570885295 2.772611362797349e-20)
(-0.3816534317638831 -0.03048368047538624 0)
(1.07231567975119 -0.016385694665124 0)
(1.084674318335651 -0.004767328012485158 0)
(0.649304393007558 -0.5055228732074969 -2.466819039514377e-19)
(0.9894375201030307 -0.001054735671580949 0)
(1.092481844113791 -0.02145174200108572 5.48638359226677e-22)
(1.187071370623112 0.1210011476410758 -2.009647038368405e-19)
(1.096919833888374 -0.04908563234306098 0)
(1.006220168559363 -0.02104965613560417 0)
(0.7745039667172516 -0.1815125274611121 -1.643187458364461e-19)
(0.8793765667404998 -0.13237099226128 1.483087516068286e-19)
(1.032268124018975 0.01471487334107902 -2.156290587563842e-20)
(1.023122305954843 -0.008941884855716582 -4.481770807754285e-20)
(0.879583850185149 0.01042268747299623 3.106118878544699e-22)
(1.506704932972209 -0.1944543510738708 0)
(1.308833913553282 0.1157226985460715 2.982217770330335e-20)
(1.241992050135823 -0.07422570499407714 -3.291296457052084e-21)
(1.095704585234538 -0.01853210556238958 -3.942481778457344e-20)
(1.034830806327436 -0.01452095665380729 2.781579377829016e-20)
(1.092834667983934 -0.03906269371074974 9.264244341751743e-20)
(1.031790135620369 0.02060621416807098 0)
(1.049087327663554 -0.03757758508480086 0)
(1.11594798651589 -0.00894372832974185 0)
(1.096371130713763 -0.04164350083545745 0)
(0.9982437183198385 0.01109238593245982 0)
(1.150365458438616 0.08201394459113438 9.542612873671258e-20)
(1.338068972519982 -0.1539127054313698 0)
(1.036476499681787 -0.02713229158741703 -2.416126880187682e-22)
(1.047896524999672 0.05176693101958559 0)
(1.010263967136412 0.01435920381586764 -3.894395607226526e-20)
(1.033816725733409 -0.007343148433892532 9.188891167742959e-21)
(1.088931498977554 0.01347109129161769 -3.23064339913663e-20)
(1.085099161883185 -0.02795334297941447 0)
(1.070561622085221 0.005669079915954656 0)
(1.105647824618845 0.09361741612625001 -1.412483945890548e-18)
(0.9355506821298886 -0.1503777266726227 -7.078673238460608e-20)
(1.171324878348311 0.1172254331139299 1.147023875748756e-19)
(-0.469708620460745 -0.01666932030038931 -2.895556335387513e-19)
(1.017833218831538 0.02907122925151928 -8.75561073848582e-20)
(1.005584506833432 0.004603497779464863 0)
(-0.2566368611408312 -0.00186824376702823 3.551749851600204e-19)
(-0.03526708588468522 0.2901177397538472 7.600400335800956e-21)
(0.9952129982420769 -0.006260482062477031 9.497677959894538e-20)
(0.1850107858615464 -0.04460351734756313 1.315950205806743e-19)
(1.084472244830403 0.08604836992373277 1.421682487757094e-20)
(0.09382918257318254 -0.111593587346753 -5.503365606774306e-20)
(1.108417813659898 0.002994675672600886 0)
(1.100260581716051 0.2534141213193528 0)
(1.021161460710724 0.02144122559366045 -1.712933045504906e-20)
(1.064318613030752 0.05159549662149681 0)
(1.026383304434449 0.02366127769729512 -8.667049348065264e-21)
(1.264187860451862 -0.5494784663975733 8.044258833242151e-19)
(-0.1165392130008433 -0.2367316322654035 2.133562656995245e-19)
(1.301043676327265 0.1147663404540629 -6.250679406765406e-19)
(1.121911687031763 -0.002515899419036858 0)
(1.121409845528782 0.1036715690880857 0)
(0.52458181432342 0.07860892483301107 2.456765284180103e-19)
(1.02372441234038 -0.02025009843096272 9.415146048464871e-20)
(1.006567011517905 -0.02335936426559636 0)
(1.210434113166559 0.2702382698253663 -9.596080120509452e-20)
(1.262738053345911 0.130642429267295 -1.547823356366403e-19)
(1.02658546642188 0.003326090396375888 1.554076224375499e-20)
(1.300221638802526 -0.08504400374931527 -4.992158373551621e-19)
(0.3005237023922132 -0.01921576278625567 2.823283338230381e-19)
(0.8288766380950155 -0.1474300126543383 6.793519615608876e-19)
(1.03929927150839 0.05079888384222123 1.081217224560775e-19)
(1.038227320280443 0.003330977633133079 1.756130096417246e-21)
(1.001108207877516 0.01919206716861513 2.929521099922134e-20)