/*--------------------------------*- C++ -*----------------------------------*\
| =========                 |                                                 |
| \\      /  F ield         | OpenFOAM: The Open Source CFD Toolbox           |
|  \\    /   O peration     | Version:  2412                                  |
|   \\  /    A nd           | Website:  www.openfoam.com                      |
|    \\/     M anipulation  |                                                 |
\*---------------------------------------------------------------------------*/
FoamFile
{
    version     2.0;
    format      ascii;
    arch        "LSB;label=32;scalar=64";
    class       volScalarField;
    location    "913";
    object      yPlus;
}
// * * * * * * * * * * * * * * * * * * * * * * * * * * * * * * * * * * * * * //

dimensions      [0 0 0 0 0 0 0];

internalField   uniform 0;

boundaryField
{
    FrontBack
    {
        type            empty;
    }
    Top
    {
        type            calculated;
        value           nonuniform List<scalar> 
15
(
142.2876556751272
133.588598804619
138.068512308078
144.4112057091555
159.7709105945165
131.3683123084904
140.1383489128473
135.3615703193759
153.4514604637896
135.7328021413303
136.095823957251
136.7692151479439
125.2654965120779
132.9124376865424
123.9528790808747
)
;
    }
    In
    {
        type            calculated;
        value           uniform 0;
    }
    Bottom
    {
        type            calculated;
        value           nonuniform List<scalar> 
15
(
155.5664107548807
158.1185107421485
141.0826778868479
142.0426930633301
141.176634756943
148.4243043090808
142.698029932648
143.1488172302085
143.4222412862096
134.05618854868
125.7252010249933
141.5533096954824
122.4055068046487
123.4873682316844
124.1297275055519
)
;
    }
    Out
    {
        type            calculated;
        value           uniform 0;
    }
    circle
    {
        type            calculated;
        value           nonuniform List<scalar> 
32
(
56.18202197368312
22.21543798245045
65.30208433478319
24.02074469339437
19.47529155846832
56.14943268262677
56.7194646928064
23.87889637072901
22.36291955189771
65.5380433047752
39.96634318093376
63.00367236778553
50.45331122761171
15.5083093318377
23.43496294672982
17.99065748046678
39.10817393785431
59.67780528932935
60.9915544374714
24.2634845498918
65.72090698258528
63.82934539287967
62.99331113520768
59.93894312678664
64.09062862356647
45.91715699505509
66.37632401365337
32.01287139361074
38.04163476739166
55.77478008239603
20.95336839409297
43.18116855182812
)
;
    }
}


// ************************************************************************* //
