/*--------------------------------*- C++ -*----------------------------------*\
| =========                 |                                                 |
| \\      /  F ield         | OpenFOAM: The Open Source CFD Toolbox           |
|  \\    /   O peration     | Version:  2412                                  |
|   \\  /    A nd           | Website:  www.openfoam.com                      |
|    \\/     M anipulation  |                                                 |
\*---------------------------------------------------------------------------*/
FoamFile
{
    version     2.0;
    format      ascii;
    arch        "LSB;label=32;scalar=64";
    class       volScalarField;
    location    "44";
    object      p;
}
// * * * * * * * * * * * * * * * * * * * * * * * * * * * * * * * * * * * * * //

dimensions      [0 2 -2 0 0 0 0];

internalField   nonuniform List<scalar> 
808
(
0.117612
0.036979
0.0770724
0.116861
-0.293329
0.0331762
0.0269894
0.0356591
-0.172858
-0.0332067
0.0786421
-0.198037
0.0392889
0.0277137
-0.119826
0.0377758
-0.105663
0.0251281
0.0629463
0.0219324
0.059531
0.3937
0.100198
-0.00215306
0.470467
-0.109926
-0.0874358
0.0143835
0.0170922
0.0391469
0.0208998
0.0263262
0.0377789
0.0206974
-0.0928825
0.621279
0.0373243
0.0477692
0.0370755
0.0335997
-0.0550961
-0.0804611
0.0619306
0.0556692
-0.123173
0.116453
0.0389224
-0.0229982
0.0411286
-0.215153
0.0368214
0.0126148
0.0731408
0.00574831
-0.0477815
0.0396096
0.0135802
0.0726042
-0.0378711
0.03367
-0.314362
-0.0240953
0.0379893
-0.195438
0.0547169
0.0728572
-0.352728
0.0387535
0.0827209
-0.348802
0.0438571
-0.392553
0.0350367
0.0317528
0.153122
0.0499129
0.0224611
-0.0300428
0.0360887
0.336847
-0.0678865
0.0336049
0.052086
0.255658
0.0540702
0.00585994
-0.439916
-0.0677506
0.0420793
-0.0982865
0.0425961
-0.123755
0.274623
0.182689
0.0666107
-0.32863
0.0359693
-0.0906003
-0.126261
-0.293558
0.0363674
0.0261055
0.0489431
0.0158124
-0.0378683
0.0872463
-0.150633
-0.02704
0.0377738
-0.00636647
-0.00570463
0.353024
0.0427023
0.00586063
0.037854
0.448263
0.0333503
-0.335493
0.0409176
0.0622515
-0.193019
0.0619501
0.0341791
0.0608527
0.141093
-0.0145073
0.0975123
0.0025056
0.019774
0.0946028
-0.447328
0.0380764
-0.0360587
0.154956
0.0395359
0.0344236
0.0336756
-0.00496632
0.0414179
0.0275337
-0.238196
0.0468041
0.0726225
0.0439465
0.00867405
-0.0217953
0.0956342
0.150584
-0.193095
-0.0445581
0.0435596
0.362465
0.0428138
0.545078
-0.285515
-0.0474794
0.0338873
-0.140595
0.0616328
-0.0623973
-0.38682
-0.257529
-0.397041
0.0373689
0.0880218
0.0458574
0.0370962
-0.436628
0.037149
0.0538479
0.0478778
0.18554
-0.0173084
0.0903567
0.0328416
0.0698969
0.097958
-0.189998
0.0409698
-0.427424
0.0563603
-0.0896451
0.0349694
0.249648
-0.103888
0.14515
0.0470076
-0.150718
0.0588906
-0.107495
-0.260992
-0.0459767
0.0407276
0.0749608
0.0355411
-0.197424
0.0410197
0.0421802
0.0155641
0.109029
0.06943
0.0367448
0.0405884
-0.399754
0.384114
-0.215094
-0.383542
0.0146997
0.0646731
0.0422856
0.00107866
-0.484092
-0.424762
0.0355996
0.00225469
0.0338886
-0.405744
-0.00111604
0.0128738
0.0161305
-0.00257699
-0.0501954
0.040595
0.0395693
0.0138634
0.0394553
0.153751
-0.477432
-0.0525467
0.0187698
0.145621
0.0226197
0.0248628
0.01808
-0.0533167
0.0437737
0.0169551
0.0133466
0.0106337
0.0283094
0.0116611
0.0133191
0.00450981
0.0114924
0.0103592
-0.0124433
0.0134398
0.0291521
-0.0234859
0.00317833
-0.39955
-0.00836226
0.00338209
-0.020633
0.0114264
0.0377502
0.0413531
-0.00360029
0.0307418
0.15501
-0.0429961
0.0269555
0.027668
-0.0194534
0.0710556
0.00946187
-0.0241505
0.0341864
-0.0464741
0.0399717
-0.0104694
-0.482289
0.297714
0.0413626
-0.116277
0.0175627
0.0523103
0.0236131
-0.236184
0.247722
0.0134941
0.0358035
-0.0212209
0.0867989
-0.244783
0.0238664
0.0140331
-0.0922461
-0.0239209
0.04999
0.0364461
0.0239044
-0.022096
0.00268835
-0.0762191
0.0333534
0.024092
0.0874091
-0.0406804
-0.0332568
-0.028455
0.0293018
0.00175747
0.0420741
-0.596686
-0.0464476
0.0558874
-0.0441839
-0.211918
-0.159615
-0.02441
0.0374398
-0.394766
0.121832
0.144749
0.0411618
0.0334568
-0.0678239
0.0116654
-0.280351
0.0460251
-0.0087631
0.0522152
0.0463651
0.00684629
0.0442833
-0.0342549
0.00628559
0.009582
-0.331752
0.0328521
0.0501947
0.0156846
-0.0528806
0.0368968
0.254026
-0.00158265
-0.18014
0.542233
0.112786
0.0143246
0.0502095
-0.0895581
-0.00982188
-0.00845648
0.0497341
0.00198459
0.0317135
-0.0265196
-0.187416
0.0106606
0.135093
0.0183534
-0.305314
-0.394788
-0.502151
-0.409664
0.0202425
0.0390602
0.0114438
0.0226193
-0.014614
0.0166533
0.0423425
-0.00232546
-0.589444
0.0656058
0.0256122
0.0637885
0.0051194
0.0361731
-0.0354168
0.109002
-0.447156
0.0487992
0.0511045
0.0120372
0.0747172
-0.350815
0.0363313
-0.268149
0.023383
0.048879
0.069365
0.0352988
0.0576976
-0.150271
-0.418756
0.0237639
0.0191203
-0.190461
0.0232393
0.033196
0.0314005
0.00157786
0.031933
-0.246017
0.0197153
0.0428583
0.0383439
-0.252409
-0.278803
0.0926931
-0.0587317
0.0278874
-0.0186486
0.405918
-0.0911646
0.0272725
-0.0882643
0.0359953
0.0341827
0.0443309
0.0606537
0.00420368
0.087479
-0.0144774
-0.00494759
-0.00419582
-0.00634681
-0.0123074
-0.00796948
0.0376371
0.109005
0.00351825
0.0309142
0.01608
0.0550427
0.0311775
0.0501156
-0.451025
-0.0186732
0.0381776
0.0211392
-0.155407
-0.392395
-0.000999392
-0.129143
0.0764847
0.0405471
-0.362374
-0.300576
0.279879
-0.389904
-0.536721
-0.0173138
-0.119569
0.0693795
-0.410372
0.346555
-0.0663141
-0.381957
0.0276642
0.120367
0.542069
0.0220057
-0.00371901
0.0816809
-0.0956325
0.0124073
-0.312108
-0.205948
-0.00561298
0.0613675
-0.0541871
-0.323706
-0.395282
-0.129005
0.0376397
0.0395226
0.12
0.00757527
-0.0589086
0.107471
-0.0459954
0.035762
-0.163269
-0.257287
0.0336957
0.0425278
0.0386269
0.0416358
0.0776642
-0.0092864
0.0329764
-0.55207
0.440172
-0.225035
-0.345225
0.0178323
0.0106909
-0.315912
-0.285949
0.113111
-0.411455
0.0335293
0.86158
0.0373933
-0.430657
0.0343809
0.105309
0.0485836
-0.542329
-0.294118
-0.382
-0.00047725
-0.023057
-0.437872
0.0241552
0.0122349
0.137543
-0.408658
0.0614365
-0.588211
-0.282888
-0.344376
0.0957218
0.0466941
0.0390405
0.133775
0.115752
0.0409192
-0.346305
0.289583
-0.0971566
-0.0188597
-0.523885
-0.584993
-0.415833
0.033472
-0.42518
-0.0860787
0.0309555
0.00116536
-0.112595
-0.288882
0.0323129
-0.38103
-0.196238
0.0159439
0.0280002
-0.358983
0.0258163
0.0676117
-0.459458
-0.440836
-0.0839215
0.130856
0.0436447
-0.407262
-0.26013
-0.324371
0.103194
0.0751874
0.129356
0.00273997
-0.44154
-0.248357
0.133034
0.0403891
0.079841
0.0565529
0.0450348
-0.291435
0.0571595
-0.334591
0.0531859
-0.186037
0.0904196
0.00814832
-0.323369
-0.409376
-0.000787869
-0.555851
-0.54722
0.0691908
-0.0127949
-0.27337
0.000710659
-0.36558
0.0351305
0.115276
0.0530308
-0.155775
-0.0531111
0.120151
-0.39084
0.0125083
-0.36843
0.0334563
-0.395159
-0.45707
0.073254
0.304744
0.442186
0.0315389
0.00396576
0.00733858
-0.418642
0.656771
0.0426018
-0.130552
0.0203105
-0.139787
0.0665488
0.512099
-0.331131
-0.0132022
-0.00632259
0.0255747
0.0288977
-0.407103
-0.322204
-0.417231
-0.257085
-0.347242
0.023319
-0.438769
-0.0732851
-0.205139
-0.2497
0.557567
0.6231
-0.186659
0.0704408
-0.290936
-0.00345179
0.140691
0.45472
0.134007
-0.394304
0.0489509
-0.451279
0.0176114
-0.149045
0.0254728
-0.27778
-0.199932
0.00953158
0.00454608
-0.392482
0.410105
0.695469
-0.444129
-0.260896
-0.423
-0.0236223
-0.267249
-0.262762
-0.0834385
-0.39415
0.789243
-0.299654
0.72341
-0.495656
0.307423
-0.39548
0.0382374
0.209337
-0.449695
0.165734
-0.181108
-0.259008
-0.288129
0.889519
-0.309234
0.191776
0.121718
0.624618
0.106562
-0.208766
-0.205951
-0.106268
0.0230298
0.134913
0.481438
0.0199587
0.0194646
-0.264464
0.173105
-0.174003
-0.310155
0.0612024
-0.133373
-0.232901
-0.0966365
-0.451717
0.0357369
0.0950031
0.0364574
0.109683
0.0919762
-0.284836
-0.296068
0.0792107
0.0493683
-0.406072
-0.456933
0.225317
0.224584
0.0895038
0.703236
-0.13368
-0.209455
-0.326704
-0.257826
-0.108008
0.124499
0.783374
-0.395521
0.336754
0.0347236
-0.377064
0.18528
-0.0215827
0.353742
-0.0895193
0.0468827
-0.401422
-0.143627
0.143247
0.80309
0.321293
0.787815
-0.49745
-0.245358
-0.502319
0.208555
0.294587
0.0922013
0.416517
0.0755972
0.49857
0.312866
0.0523838
-0.252288
-0.0111772
-0.245675
0.893328
0.403984
0.689356
0.518988
-0.209666
-0.472232
-0.276982
-0.363637
0.0774696
-0.486302
0.0492549
0.62369
-0.492468
0.00724783
-0.367798
0.215846
-0.293718
-0.321057
-0.116191
-0.233267
-0.29162
-0.40219
-0.411598
-0.0879646
-0.505592
-0.199524
-0.294778
0.180564
0.627714
-0.158679
-0.396618
0.853881
-0.391718
0.253175
-0.184187
0.341734
0.0790899
-0.493829
-0.344062
0.486442
-0.348906
-0.268332
0.14773
-0.220702
0.0275753
-0.259925
-0.0657747
0.0557259
0.553572
0.782566
-0.261323
0.208534
-0.254665
0.833073
0.0286801
-0.25981
0.032107
0.754411
0.237149
-0.267792
-0.262646
0.430726
-0.159032
0.0772937
0.393562
0.28073
0.27885
-0.195197
-0.193244
0.692581
)
;

boundaryField
{
    FrontBack
    {
        type            empty;
    }
    Top
    {
        type            zeroGradient;
    }
    In
    {
        type            zeroGradient;
    }
    Bottom
    {
        type            zeroGradient;
    }
    Out
    {
        type            fixedValue;
        value           uniform 0;
    }
    circle
    {
        type            zeroGradient;
    }
}


// ************************************************************************* //
