/*--------------------------------*- C++ -*----------------------------------*\
| =========                 |                                                 |
| \\      /  F ield         | OpenFOAM: The Open Source CFD Toolbox           |
|  \\    /   O peration     | Version:  2412                                  |
|   \\  /    A nd           | Website:  www.openfoam.com                      |
|    \\/     M anipulation  |                                                 |
\*---------------------------------------------------------------------------*/
FoamFile
{
    version     2.0;
    format      ascii;
    arch        "LSB;label=32;scalar=64";
    class       surfaceScalarField;
    location    "44";
    object      phi;
}
// * * * * * * * * * * * * * * * * * * * * * * * * * * * * * * * * * * * * * //

dimensions      [0 3 -1 0 0 0 0];

oriented        oriented;

internalField   nonuniform List<scalar> 
1171
(
-0.944829
0.944829
0.760005
-1.06923
0.309222
-0.113758
-0.656219
0.769977
0.0551708
-0.0791759
-0.281452
0.360628
-0.760005
0.0820276
0.677977
0.90397
-0.210152
-0.693818
0.841397
-1.08332
0.241925
-0.355582
-0.0533283
0.408911
-0.0210022
0.609335
-0.588332
-0.595977
0.864383
-0.268406
-0.434758
1.02533
-0.183935
0.211535
0.100798
-0.312333
0.975821
0.0495121
0.237944
-0.0264092
1.01155
-0.0357279
0.694121
-0.807879
-0.77183
0.5927
0.179129
0.154058
-0.750035
0.549313
-0.910152
0.360839
-1.07812
0.668324
0.409792
-0.643744
0.622742
0.0227186
-0.242084
0.219366
0.0485298
-0.627307
0.578777
0.460328
-0.513656
-0.84959
0.887873
-0.0382835
0.979472
0.0320765
0.897276
-1.06478
0.167501
0.98694
-0.00746805
-0.696272
-0.0755578
1.3141
-0.862876
-0.451221
0.13735
-0.103979
-0.391194
0.495174
-0.274271
0.193285
0.0809865
-0.596873
-0.472354
0.999028
-0.101751
-0.030434
0.891402
-0.860968
0.530981
0.783116
0.505355
0.0021298
0.458198
-0.788359
-0.109483
0.897842
0.540408
0.257697
-0.798105
0.0831158
0.566342
-0.649458
-0.506645
-0.571472
-0.37882
-0.685958
0.0153213
0.258099
-0.273421
-0.953865
-0.0312295
0.985095
0.371862
0.0370486
0.802879
0.101092
-0.591676
-0.052068
0.0364492
-0.824808
0.013619
0.97888
-0.992499
-0.397689
0.0262239
0.371465
-0.703942
-0.249923
-0.726352
0.739971
0.814369
0.0500142
-0.586203
0.981717
-0.804453
-0.177264
-0.293062
0.222164
0.0708975
-0.457049
-0.0566066
-0.251023
1.06539
0.0306089
0.405782
-0.436391
-0.539151
1.07956
0.708782
-0.818265
0.400879
-0.0517615
-0.349118
0.801506
-0.801506
-0.807557
0.0497278
-0.331179
-0.69627
0.665836
-0.0466059
-0.155005
0.201611
0.890386
0.00101659
1.04896
-0.791258
0.227253
-0.327605
0.100352
0.912271
-0.109392
-0.658738
-0.0478976
0.706635
0.145518
-0.227452
0.0819337
0.781557
-0.991709
-0.430839
0.3068
0.124039
0.677293
-0.628763
0.876673
-0.402517
-0.474156
0.497853
-0.695461
0.0343029
0.661158
0.114166
0.636385
0.0555679
-0.691953
0.15032
-0.100592
-0.503661
0.105972
0.0329024
-0.888579
0.855676
-0.526509
-0.748005
0.0517328
0.498379
-0.0401809
0.278813
-0.835617
0.556804
0.423433
0.576567
0.597184
-0.560735
-0.431488
0.0408228
0.390665
0.560001
0.241505
-0.671102
0.754218
0.107184
0.863585
0.00447881
-0.663217
-0.758194
0.791096
0.588487
0.0846306
0.336193
-0.420823
-0.156483
0.57355
-0.00720803
0.912343
-0.837881
-0.0744628
0.65516
0.326557
-0.441728
0.65023
-0.565599
0.40812
0.141193
-0.0487823
-0.786253
-0.216408
1.00266
-0.136152
-0.665354
-0.615695
0.360016
0.25568
0.650441
-0.645962
0.314022
1.02224
0.0267127
-0.758194
-0.113079
-0.179983
0.708782
0.776282
-0.776282
0.836846
-0.819011
-0.0178345
-0.45378
0.877213
-0.188444
-0.315217
0.764328
-0.676329
-0.0879992
-0.934436
0.148183
0.12336
-0.715036
0.818265
-0.974749
-0.269547
0.236488
0.0330594
0.113181
-1.01983
0.906652
0.539716
-0.0343604
-0.29095
0.593703
-0.302753
-0.667624
0.780805
-0.154012
0.580147
-0.936675
0.356529
1.08095
-0.750163
-0.330784
0.7275
-0.0705161
0.0185138
-0.0158142
-0.00269955
-0.800073
-0.825972
0.169753
-0.69627
0.567806
-0.541582
0.325258
0.608671
-0.933929
0.776028
0.168801
0.492179
0.507821
-0.113597
-0.73856
0.852156
1.08433
-0.171983
-0.7275
0.791096
0.185924
-0.428009
-0.0458342
0.0390661
0.00676811
0.663404
-0.427372
-0.236032
0.677977
-0.0706806
-0.245825
0.556039
0.107365
-0.0299104
-0.000988616
0.030899
0.00931678
0.009197
0.194327
-0.246088
-0.930294
0.00241031
-0.139198
-0.0752206
0.124126
0.828536
0.74095
-0.164383
0.760764
-0.435506
-0.167208
0.39446
0.640912
0.0370657
0.236452
-1.05546
-0.974749
0.331681
0.665836
-0.177497
0.0224923
-0.830947
1.08066
-0.24971
0.472402
-0.100938
0.78516
0.304539
0.268205
-0.0302609
-0.680311
0.680311
0.232846
0.664996
-0.052587
0.458369
0.442587
-0.0183604
-0.0274738
0.510031
0.0296846
-0.667624
0.56362
0.200708
-0.00880438
-0.00700984
-0.640912
0.17667
0.903987
0.0368168
-0.745681
0.708864
0.756182
-0.820568
0.0643856
-0.776028
-0.046732
0.0643562
-0.0176242
0.0898481
-0.123315
-0.100237
0.223552
-0.0056603
-0.0242501
0.790758
-0.753941
0.904657
-0.13468
-0.209436
-0.571797
0.781234
-0.000644838
0.000644838
0.27731
0.598154
0.303651
-0.901804
-0.19168
-0.547691
0.739372
-0.0173984
0.219009
0.376235
-0.230717
0.932482
-0.334329
0.815682
0.954556
-0.650905
0.187791
0.780805
0.596869
0.228494
0.659379
-0.665354
0.319689
-0.102403
0.137395
-0.0349913
0.937007
-0.00914019
-0.927867
-0.561141
0.553673
0.54622
-0.561141
-0.596869
0.553673
0.0061905
0.765472
0.139185
-0.560001
0.467963
0.0920379
0.574178
0.633196
-1.20737
0.634773
0.297709
0.555182
0.631693
-1.18688
0.706309
0.248247
0.467963
-0.542149
-0.451299
-0.657979
-0.713788
-0.328004
-0.0104093
0.0104093
0.629648
0.44434
-1.15813
0.632017
-0.295824
-1.08745
0.337283
-0.686962
0.437039
-0.109375
-0.913854
1.02323
0.45
-0.187792
1.1248
-0.935788
-1.1173
0.208326
0.908971
0.296623
-0.401634
0.105011
0.69432
-0.796071
0.884939
-0.951395
0.0664559
-0.00175667
-0.836124
-0.233252
0.920026
-0.686774
-1.02091
1.01915
-0.739753
0.444467
0.295286
-0.51131
-0.278745
0.790055
0.00500749
-0.00565233
0.420006
0.0508484
-0.905997
0.855149
-0.840918
0.727321
1.14775
0.0684598
-1.21621
0.0304566
-0.0626836
0.453349
-0.36681
0.0392055
0.923385
-1.03276
-0.64599
-0.603081
-0.233043
-0.16501
-0.852419
-0.098976
0.383225
0.377539
-0.160422
0.457045
-0.874149
0.595405
0.474156
-1.10165
-0.952445
-0.186973
0.03177
0.697787
-0.729557
0.17081
-0.61422
0.577089
0.179093
0.176362
0.948436
1.22747
0.873921
-0.972897
0.0509488
-0.0509488
-0.072724
-0.0730247
-0.328609
0.329207
0.00247425
0.197524
1.11925
0.031256
-0.0369163
0.655595
0.344405
0.796718
-0.596873
-0.754193
-0.738697
-0.51539
0.51539
-0.212837
-0.118343
0.634306
-0.893375
0.259069
-0.470062
-0.544157
0.301574
-0.987532
-0.873834
0.940289
-0.840818
0.607775
0.650677
0.20472
-0.855397
-0.443411
-0.198676
0.859792
-0.661116
-0.245413
0.0260857
0.000207178
-0.0262928
-0.289925
0.2169
0.93588
0.502713
-0.116323
-0.38639
0.607724
0.752376
-0.51953
0.0185745
-0.292846
-0.183112
0.793316
-0.610204
-0.336855
-0.0866996
0.140435
-1.10068
0.172812
-0.688655
0.13911
0.6971
-0.836209
-0.891268
0.202613
0.700459
-0.787159
0.22705
-0.350365
-0.70076
0.257349
0.370568
0.67076
-0.0205302
-0.0120818
0.0120818
-0.011398
-0.00526714
-0.0971362
-0.0118353
0.0430913
-0.323221
0.342694
0.693391
-0.798191
0.1048
-0.637703
0.776813
0.798623
-0.0981644
-0.690633
-0.200635
-1.12804
0.0216259
0.0293229
-0.506332
-0.923885
-0.876487
0.425266
-0.144279
0.250665
-0.106386
-0.346928
-0.159404
0.433422
0.710766
-0.0747327
-0.000487872
0.84333
0.547516
0.100241
-0.647758
-0.247779
-0.0991495
0.0027266
0.0233591
0.74982
-0.966227
0.00305287
-0.00305287
-0.709234
0.807683
-0.0984493
-0.408201
-0.182167
-0.682487
0.215379
0.636777
-0.0641304
-0.881163
-0.538744
0.305746
0.232999
0.716781
-0.611981
0.360406
0.233381
-0.593787
-0.174066
-0.670236
-0.165974
-0.161718
-0.323365
0.462843
-0.519449
0.158544
0.76226
-0.920804
0.497853
-0.3183
0.17402
-0.0309547
-0.292411
0.586626
-0.0884706
-0.498156
-0.295228
0.315396
-0.0201677
0.502964
0.129053
0.128388
-0.319269
0.176205
0.143064
0.0900595
-0.203139
-0.446905
-0.0591048
0.056926
0.00217879
0.988494
-0.21092
-0.197281
0.547184
0.400616
-0.516939
0.421726
-0.421726
-0.210944
-0.410774
-0.221846
-0.410774
-0.790948
-0.852226
0.175897
-0.539529
0.772486
0.0450439
0.114442
0.556317
0.111909
0.128559
0.00692027
-0.135479
-0.233783
0.592022
-0.916686
0.344888
-0.131432
0.0838329
0.0475993
-0.759281
-0.176659
-0.551203
0.651445
-0.512703
-0.154857
-0.137554
-0.346644
-0.0784171
0.0784171
0.0630075
0.00134873
0.150185
0.0475267
-0.617406
0.066203
0.00596238
0.474153
0.525847
0.855709
0.00826115
0.0393804
-0.0476415
-0.304551
-0.576612
-0.456146
0.120845
-0.124886
0.00404182
-0.178474
-0.403688
-0.218006
0.854783
-0.583516
-0.175765
0.0673073
-0.0271648
0.315887
-0.59491
-0.205917
-0.223436
-0.0226521
-0.46342
0.419144
0.0442761
-0.0332545
0.294438
-0.86591
-0.512823
0.621
-0.886387
0.712321
0.395686
-0.0363845
0.0588777
-0.0224932
0.164832
-0.632411
-0.0054296
0.637841
-0.886663
0.64899
-0.721714
0.0236037
0.00913774
-0.00913774
-0.300694
0.377369
0.0759804
-0.0259285
0.0341897
0.567957
0.556916
-0.631379
0.0131376
-0.00655584
-0.00552598
0.00619424
-0.00619424
-0.422292
0.551345
0.0186098
-0.0186098
-0.776905
-0.0107452
0.0157527
-0.464788
0.530991
0.53382
-0.63227
0.0744195
-0.0744195
0.0129915
-0.0404653
-0.00442675
-1.05549
0.724707
-0.528678
-0.00565233
0.601317
0.00773752
-0.609054
-0.707757
0.124241
-0.311293
-0.0110822
0.322375
-0.0403553
-0.0343774
-0.604261
-0.0281505
0.0293229
0.0049721
-0.00191923
-0.00220805
0.00220805
-0.134084
0.136263
-0.483765
0.137608
0.659111
-0.0914403
0.012289
-0.012289
0.508456
-0.137865
0.00978258
0.0201852
0.000541917
0.618042
-0.755907
-0.785832
0.58855
-0.151309
0.35107
0.813573
-0.011398
-0.0864067
0.0793969
-0.653643
0.529372
-0.302563
-0.10644
-0.0271714
-0.0271775
0.0275451
0.472271
-0.0892524
-0.408903
0.713337
0.00421509
-0.00121352
0.00121352
-0.242319
-0.0865575
-0.568837
0.61388
-0.136622
0.504451
-0.139809
0.83393
0.794635
0.0049721
-0.651763
0.54881
0.04494
0.032371
-0.077311
0.555296
0.104616
-0.0120058
0.0677505
-0.0557447
0.00979778
-0.00979778
-0.755101
0.0234707
-0.0495931
0.0697783
-0.0846672
0.0846672
-0.00655584
0.00089104
0.790835
0.113152
-0.312029
-0.0916583
-0.514328
0.112247
-0.0662242
0.0662242
-0.03465
0.0862632
-0.0862632
0.0270645
-0.0270645
-0.359357
-0.0823708
0.234131
0.0726691
0.0462369
-0.763995
-0.0748756
0.157797
0.0281275
-0.23637
0.0857129
-0.0857129
-0.462666
-0.0567838
0.224857
-0.00549102
0.00276405
-0.662918
0.656728
-0.00156044
-0.0330896
0.0514639
-0.0919292
-0.0118438
-0.164648
0.176492
-0.145907
-0.204458
-0.0802471
0.0802471
0.0524816
-0.0524816
-0.025011
-0.093527
0.118538
-0.053574
-0.194876
0.0131553
-0.0186812
-0.0332271
0.16949
-0.0259355
0.497763
0.0116966
0.0192024
-0.0509942
0.0509942
-0.727144
0.313308
-0.125517
-0.205709
-0.0217431
-0.0199924
0.0227564
0.18866
0.0348927
-0.0013296
0.00187152
0.0897858
0.0310588
0.0587789
0.099018
-0.0438471
0.0433592
-0.00426639
-0.000755812
0.00165598
-0.00466405
0.00300807
-0.00534232
0.0159117
0.0257769
-0.0257769
0.0477582
-0.0465981
0.0465981
-0.190605
0.0184466
0.0287866
-0.0771623
0.0172667
0.0816988
-0.0816988
0.232936
-0.234771
0.0888636
-0.065418
-0.169353
-0.0124465
0.0124465
0.407429
0.253729
-0.526565
-0.0810844
-0.0438021
0.545036
-0.00211011
-0.0515141
-0.447134
0.118842
-0.148919
0.167087
-0.018168
-0.05064
0.05064
0.932415
-0.586709
0.00271614
-0.00805846
-0.00625014
-0.295002
-0.000550298
0.00442015
-0.0523833
-0.625971
0.571111
-0.645483
0.0140228
0.0191752
0.0152301
0.0239297
-0.155169
-0.328202
0.25104
-0.0517158
0.0267048
0.173962
0.141433
0.309771
0.260951
-0.245721
-0.000263254
-0.121039
-0.216791
0.0650462
-0.00626726
0.159364
-0.135434
-0.069732
0.159518
-0.412101
0.121163
-0.103896
0.0609898
-0.469893
0.171507
0.185533
-0.255265
0.0145821
-0.185366
0.184816
0.00401414
0.155504
-0.0279883
0.0450147
0.463441
0.0133304
-0.00682758
0.0073636
0.0426007
-0.234959
-0.204163
0.588885
0.16229
0.0625667
0.0671697
-0.0644831
0.0411858
-0.118497
-0.0310563
0.163787
-0.149764
0.0207175
-0.0159651
-0.112009
-0.0298623
0.0640767
0.25405
-0.0514481
-0.0507434
-0.305395
-0.0159308
0.224738
0.138897
0.174411
0.0554678
0.0926025
0.0644151
0.503542
-0.00125832
0.112201
0.0373235
0.0717904
-0.109114
-0.272836
-0.194365
0.0250121
-0.215843
0.280383
)
;

boundaryField
{
    FrontBack
    {
        type            empty;
    }
    Top
    {
        type            calculated;
        value           uniform 0;
    }
    In
    {
        type            calculated;
        value           uniform -1;
    }
    Bottom
    {
        type            calculated;
        value           uniform 0;
    }
    Out
    {
        type            calculated;
        value           nonuniform List<scalar> 10(1.18996 1.11633 1.10928 1.00402 1.26489 0.962035 1.07399 1.01422 0.63267 0.63262);
    }
    circle
    {
        type            calculated;
        value           uniform 0;
    }
}


// ************************************************************************* //
