/*--------------------------------*- C++ -*----------------------------------*\
| =========                 |                                                 |
| \\      /  F ield         | OpenFOAM: The Open Source CFD Toolbox           |
|  \\    /   O peration     | Version:  2412                                  |
|   \\  /    A nd           | Website:  www.openfoam.com                      |
|    \\/     M anipulation  |                                                 |
\*---------------------------------------------------------------------------*/
FoamFile
{
    version     2.0;
    format      ascii;
    arch        "LSB;label=32;scalar=64";
    class       volVectorField;
    location    "44";
    object      U;
}
// * * * * * * * * * * * * * * * * * * * * * * * * * * * * * * * * * * * * * //

dimensions      [0 1 -1 0 0 0 0];

internalField   nonuniform List<vector> 
808
(
(0.896404 -0.0131202 0)
(1.00389 -0.0382966 0)
(1.00543 -0.0645362 0)
(1.06665 0.0139775 -2.43298e-21)
(1.50964 -0.250907 0)
(0.938604 -0.0151863 0)
(1.10043 -0.058828 -6.89962e-21)
(1.16146 -0.0548857 0)
(1.38775 -0.205057 3.28568e-20)
(1.22264 -0.0534908 -1.00466e-20)
(1.00893 0.115751 1.29042e-20)
(1.42052 -0.214751 0)
(1.01714 -0.0527488 0)
(0.727308 -0.0311589 0)
(0.850152 0.0824352 8.78259e-21)
(1.09306 -0.0455807 0)
(0.721334 -0.0261395 -2.28607e-21)
(0.997404 -0.042091 -1.15599e-22)
(1.0326 -0.0746364 0)
(1.09397 0.0112792 0)
(1.0843 0.0631357 -1.80068e-20)
(0.928981 0.119484 1.15501e-19)
(1.07187 0.0119059 -1.89551e-20)
(1.16188 -0.00379259 0)
(0.946999 0.160346 0)
(1.35298 0.0881391 -1.68157e-20)
(1.29628 -0.130004 1.37662e-20)
(0.957241 -0.00919108 -7.4857e-21)
(1.06567 -0.0245403 0)
(1.03875 0.0228442 -5.00616e-22)
(0.949267 -0.00108927 5.43209e-24)
(1.10653 0.00256598 0)
(1.08885 0.00848086 0)
(1.05407 -0.00333931 5.70981e-21)
(1.29203 -0.00746131 8.35151e-21)
(0.74656 -0.13697 1.08357e-19)
(0.859855 -0.0330669 -1.4802e-20)
(1.03403 0.00162539 2.54349e-21)
(1.20123 0.0534735 -5.64075e-21)
(1.14175 0.0318047 0)
(1.23991 -0.0116934 -1.40712e-20)
(1.27535 -0.0912494 0)
(1.00935 -0.00861197 -1.27457e-20)
(1.09077 -0.0290342 1.7228e-20)
(1.27495 0.0328773 0)
(1.00979 0.0131804 -2.50368e-20)
(0.999144 0.0339107 3.63167e-21)
(1.27119 -0.220982 2.17308e-20)
(1.16947 0.0453805 -1.30308e-20)
(1.43531 -0.107632 -4.747e-20)
(1.0856 -0.0879787 1.29671e-20)
(1.13998 -0.0508906 0)
(1.11545 -0.000383604 1.14408e-20)
(1.14018 0.0645275 0)
(1.29488 0.229168 1.90459e-21)
(1.06599 0.0260385 -5.19085e-21)
(1.16737 0.0933126 0)
(1.17775 0.125359 5.81785e-21)
(1.23226 -0.0546235 1.07847e-20)
(1.12328 0.0187921 -1.94482e-21)
(-0.265968 0.556977 0)
(1.22415 -0.202116 -1.13105e-20)
(1.18487 0.0742156 0)
(1.40811 0.0345923 -3.05286e-20)
(1.11011 0.0469641 -1.77691e-20)
(1.03715 -0.0285733 -1.25855e-20)
(1.49267 -0.020532 3.70461e-20)
(0.681477 0.022833 0)
(1.06418 0.0170237 0)
(1.51951 -0.338127 0)
(0.896394 0.0324286 -3.74631e-22)
(1.37158 -0.105611 -5.21114e-20)
(1.01268 0.0589786 0)
(1.04527 -0.0087177 -5.36396e-21)
(1.15034 -0.338234 -4.9388e-20)
(1.07661 -0.0375512 -2.45215e-20)
(1.10964 0.0180909 -4.37873e-22)
(1.30391 0.478556 2.46382e-20)
(1.08789 -0.0457626 0)
(1.002 0.259464 -1.93452e-19)
(1.33648 0.0657619 8.69467e-21)
(0.743297 0.0116414 0)
(0.849857 0.0139716 -1.60378e-20)
(0.974361 -0.116566 3.92728e-21)
(1.05624 -0.0295798 1.88299e-20)
(1.14486 0.0229316 1.75577e-22)
(1.38552 -0.221195 0)
(1.32638 0.265726 0)
(1.06941 0.0107781 -1.92761e-20)
(1.33011 0.112091 1.96183e-20)
(1.06845 -0.0064724 1.31012e-20)
(1.32654 -0.0649052 -1.71594e-21)
(0.96573 0.0230501 1.87302e-20)
(1.00334 -0.0224276 0)
(1.10934 0.0166968 2.47282e-21)
(1.46368 0.129208 -8.78537e-20)
(0.786967 0.0131594 -4.48275e-21)
(1.3707 0.00249411 0)
(1.31762 -0.028696 0)
(1.4607 -0.000146847 -5.86707e-20)
(1.08404 -0.0557566 -7.20154e-21)
(1.09442 0.0183576 -2.1488e-22)
(0.934963 0.0200445 1.28208e-20)
(1.13327 0.0159593 5.14786e-22)
(1.21512 0.047505 -9.99087e-21)
(1.00202 -4.68477e-05 1.852e-20)
(1.43256 -0.0177659 0)
(0.962603 0.0363853 0)
(1.07997 0.0226604 1.14333e-20)
(1.22414 -0.199224 -3.62408e-21)
(1.18781 0.0470283 1.08816e-21)
(1.03444 0.0352342 -1.26997e-19)
(1.14144 0.0317607 -4.55873e-21)
(1.32775 0.074383 -2.93252e-24)
(0.823741 0.0100645 0)
(0.920992 -0.0586388 7.45466e-20)
(1.12623 0.0164571 -1.01521e-20)
(1.52014 -0.234787 -2.36087e-20)
(1.12145 -0.0174988 -1.28824e-20)
(0.923642 0.0215693 1.907e-21)
(-0.146972 0.389811 0)
(0.856138 -0.0161139 2.29766e-21)
(0.782792 0.0216447 0)
(1.05152 0.0092352 -9.7104e-23)
(1.00962 0.027821 0)
(1.28962 0.309061 3.85862e-21)
(1.04057 -0.0468743 -2.96181e-20)
(1.43698 0.0270892 -3.52189e-21)
(1.14709 -0.0390221 0)
(1.09048 -0.019581 0)
(0.903805 0.0473207 0)
(1.14947 -0.0279995 -6.14265e-21)
(1.21315 -0.0140874 7.33592e-21)
(1.06319 0.106389 -3.82266e-20)
(0.86714 -0.0341982 0)
(1.08247 0.0210877 -2.72115e-21)
(1.13781 0.268163 2.27659e-21)
(1.14209 0.129797 4.07249e-22)
(0.986863 0.0250814 7.10895e-21)
(1.09954 0.0167662 1.80131e-22)
(-0.0691304 -0.0679947 0)
(1.08885 -0.00581041 -1.44023e-20)
(0.956215 0.093381 3.32769e-21)
(0.71594 0.0241193 -7.13485e-21)
(1.24073 0.154946 4.10551e-21)
(1.21543 0.308764 -1.23048e-21)
(1.04352 0.0211349 1.69972e-20)
(0.993045 0.0316208 0)
(1.26059 -0.154208 -3.10032e-20)
(1.17685 0.152928 0)
(0.940873 0.0302262 1.48669e-20)
(0.964846 0.264285 1.54408e-19)
(0.95937 0.0326243 0)
(0.820932 0.0750263 0)
(-0.139401 -0.125683 -6.93597e-20)
(1.31393 0.121021 -7.19557e-21)
(0.662152 -0.0178057 0)
(1.37511 0.0884104 0)
(1.13407 0.181974 0)
(1.32329 0.115428 6.98029e-21)
(-0.0476653 -0.23387 0)
(-0.0777327 -0.0886861 3.12163e-20)
(1.23427 0.0287269 1.18053e-19)
(0.99063 0.0325106 2.17734e-21)
(0.859239 0.000449809 0)
(1.04211 -0.0315248 1.86034e-20)
(0.873388 0.0223926 0)
(0.988485 0.0005905 -1.27476e-19)
(1.03736 0.0399253 2.06797e-20)
(1.14425 0.00180792 5.41516e-21)
(1.08161 0.0174043 8.48932e-21)
(1.01271 0.0632478 -1.38974e-20)
(0.977876 0.282625 1.22488e-21)
(1.15481 -0.346739 2.50628e-22)
(0.907029 -0.0221785 0)
(1.06276 0.00979751 -1.34461e-20)
(0.874232 0.00534344 -1.45148e-20)
(1.40086 -0.120822 2.60524e-21)
(0.684323 0.0314447 0)
(1.16094 -0.130487 0)
(1.16807 -0.00790414 9.33868e-21)
(1.36396 0.195817 5.83723e-21)
(1.09519 0.0192662 7.00412e-21)
(1.03405 0.0264662 1.82706e-20)
(0.572185 0.0964377 -3.41296e-20)
(0.813536 0.00165059 2.47785e-20)
(1.13234 -0.024875 9.79477e-21)
(1.35469 0.0425871 -4.93693e-21)
(1.13876 0.00643193 -1.0731e-20)
(1.28946 0.0298904 4.23077e-21)
(-0.138586 -0.0837023 4.92986e-20)
(1.22447 0.0350334 0)
(0.629614 -0.00791362 0)
(1.06311 -0.0134418 -5.724e-21)
(1.07944 0.0183672 1.18226e-20)
(-0.0189308 -0.00160675 0)
(0.886717 -0.0267137 7.96598e-22)
(1.19891 -0.0416863 -4.48132e-21)
(0.986193 0.0319146 2.77603e-21)
(1.07448 0.0323593 -9.09685e-21)
(0.996841 0.021026 2.28281e-21)
(1.08846 -0.0377643 3.95303e-21)
(1.07463 0.015291 0)
(0.443624 -0.0318565 0)
(1.04461 -0.0676456 0)
(1.12769 0.0847611 -2.27775e-20)
(-0.0290145 -0.269013 6.12571e-20)
(1.12526 0.0451404 -2.31326e-23)
(0.900034 -0.191141 0)
(0.746815 0.0204694 -1.39023e-20)
(0.971074 0.160628 2.28855e-21)
(0.00091359 -0.0449356 -1.91498e-19)
(1.11521 0.119656 -7.90104e-20)
(0.630401 -0.00676509 0)
(0.816109 0.261223 0)
(0.923765 0.0408299 1.19368e-20)
(1.14162 -0.0948091 7.51563e-21)
(1.26168 0.382241 -6.85183e-21)
(0.969431 0.241517 -1.32629e-22)
(1.28797 0.0647881 -1.41768e-21)
(1.00144 0.276352 0)
(1.34291 0.404563 -2.57505e-20)
(0.675329 -0.0297494 0)
(0.808247 -0.0225903 -5.24115e-21)
(1.07338 -0.0133726 -8.28618e-22)
(0.611462 0.00931288 0)
(1.10018 -0.00601173 0)
(0.44243 0.227804 -7.10823e-20)
(1.25176 -0.0572982 6.31016e-21)
(0.735416 -0.0126153 2.9493e-21)
(0.990243 -0.00296609 0)
(0.548832 -0.0122394 0)
(0.761894 -0.0156284 -4.47712e-21)
(0.554518 -0.00975153 -1.68292e-22)
(1.33768 0.038505 1.4218e-22)
(1.02818 -0.217138 -2.96043e-21)
(0.725664 0.0159289 -3.22815e-21)
(1.17468 0.0301649 9.89487e-22)
(0.98014 0.267358 1.2495e-22)
(0.566103 0.0110644 8.86355e-21)
(1.23306 0.141938 1.53511e-21)
(1.18161 0.0784864 0)
(0.883342 0.387046 0)
(0.503945 0.0190168 0)
(1.11071 -0.00718186 0)
(1.11733 0.0177644 2.95446e-21)
(0.994116 0.170155 0)
(1.25146 0.0190922 0)
(0.977148 0.162341 0)
(1.20886 0.271844 0)
(-0.0297569 -0.0848815 6.20233e-20)
(1.15157 0.111015 -1.79876e-21)
(1.16627 0.246447 0)
(1.18913 0.0985449 -7.49231e-21)
(1.16877 0.114724 1.61205e-21)
(1.11305 0.0234237 6.09125e-21)
(1.17681 -0.186341 6.74614e-21)
(1.08136 0.0412482 0)
(0.579445 -0.0157035 9.94116e-21)
(1.04692 0.0402417 1.35167e-20)
(1.27167 -0.200351 0)
(1.01713 0.0568229 -2.68303e-21)
(1.27915 0.116808 4.22461e-21)
(0.592338 -0.290349 5.28736e-21)
(1.12268 -0.0154298 1.21401e-20)
(1.07541 -0.0760071 -9.27421e-21)
(1.07401 -0.0745241 0)
(1.25215 0.205168 -8.42353e-21)
(1.23748 0.0538709 6.63682e-21)
(0.78777 0.28437 9.7132e-21)
(0.732816 -0.347085 0)
(-0.0149438 -0.0247629 0)
(0.970345 0.104301 -1.84793e-20)
(1.07275 0.0090963 0)
(1.36398 -0.127274 3.43139e-20)
(1.32127 0.0343667 -1.43976e-22)
(1.03179 0.0239346 8.91463e-21)
(1.28017 0.0512528 -4.16085e-21)
(1.37926 0.140719 1.20323e-19)
(1.03767 -0.337037 4.9866e-20)
(1.18551 -0.0555376 1.43232e-21)
(0.756934 -0.175722 0)
(0.818942 -0.227637 0)
(0.905482 0.0056817 -2.911e-20)
(1.40491 -0.139068 -6.55681e-20)
(1.07894 -0.149207 0)
(0.858582 0.353039 7.09817e-21)
(0.529337 -0.238951 0)
(0.88686 -0.301542 -5.25797e-21)
(0.87828 0.330879 -8.85782e-21)
(0.809202 0.0220229 -7.34583e-21)
(1.23311 -0.150993 0)
(1.19843 -0.071998 1.67947e-22)
(1.07234 -0.182361 3.93706e-21)
(0.888347 -0.055652 1.3575e-20)
(1.12047 -0.159262 -6.56521e-21)
(0.74132 -0.0803856 0)
(1.08937 0.0684821 0)
(1.27751 -0.24722 -5.96866e-21)
(0.994858 -0.199743 5.31151e-21)
(1.30112 0.134003 -9.64337e-21)
(1.10962 -0.101274 -5.67003e-21)
(0.881021 -0.281837 4.96163e-23)
(1.03438 -0.0596246 0)
(0.457433 -0.14922 1.68499e-20)
(1.31291 0.0944506 -1.0183e-20)
(0.765948 0.143704 -1.23351e-20)
(0.323598 -0.540169 -5.59199e-21)
(1.43593 -0.0343505 2.90003e-20)
(0.820623 0.0768545 3.11621e-20)
(1.28922 -0.244362 5.79782e-21)
(1.10382 -0.062087 1.40956e-21)
(-0.0358823 -0.28553 -1.05661e-20)
(0.999092 -0.005202 0)
(1.03388 -0.0906479 -1.52544e-20)
(0.841027 -0.0362235 1.63582e-20)
(1.0926 -0.0278597 6.37146e-21)
(0.952897 0.0539467 -4.11304e-21)
(0.543648 -0.0268355 1.58519e-21)
(1.45866 -0.368904 -1.75776e-20)
(1.03635 0.0507632 0)
(1.02085 0.0120672 1.97552e-21)
(1.10643 0.0192393 -4.36704e-21)
(1.16494 -0.158911 0)
(0.828908 -0.289217 -3.27371e-21)
(1.11016 0.054531 4.55759e-21)
(0.753678 0.283603 -1.24441e-20)
(1.15649 -0.0721912 1.85739e-22)
(0.903702 -0.329553 1.50504e-21)
(-0.0372476 -0.2269 0)
(0.336657 -0.315227 5.07452e-21)
(1.08081 -0.0132445 0)
(0.819408 -0.256368 -6.15352e-21)
(0.901211 -0.223629 0)
(1.13093 -0.0169552 9.73878e-21)
(1.01685 0.0261868 0)
(1.18561 -0.264571 0)
(1.39303 -0.0409708 2.15296e-20)
(0.809027 -0.104559 0)
(0.872744 0.236114 3.50461e-20)
(1.11651 0.0128089 1.64515e-23)
(1.01439 0.0283675 5.24812e-21)
(1.37366 -0.045013 -1.96017e-20)
(1.22558 0.123348 4.54377e-23)
(1.16606 0.105416 -5.0784e-21)
(1.07533 0.086903 0)
(1.13364 -0.06468 0)
(1.09248 0.0971224 2.11141e-21)
(1.23405 -0.0528969 0)
(1.38391 0.186848 -1.80855e-20)
(0.786355 0.316712 5.58528e-21)
(1.026 0.0132043 2.70378e-20)
(1.15883 0.0310224 1.26114e-22)
(-0.00277335 -0.102691 0)
(-0.0425552 -0.155801 0)
(0.327769 0.120807 -6.95473e-20)
(0.00931006 -0.250546 0)
(0.688962 0.422449 -3.42068e-21)
(1.18253 0.053614 -3.73375e-21)
(1.09589 -0.0952625 -7.30887e-21)
(1.19655 -0.215173 -7.48815e-21)
(1.2262 -0.089944 0)
(0.715781 -0.0166761 -2.87388e-21)
(1.1378 0.098753 0)
(1.12007 0.0515579 -1.98423e-21)
(0.557191 -0.114569 0)
(0.631318 0.23115 -6.67501e-22)
(1.18032 0.0783274 0)
(1.19546 0.0121633 0)
(0.553791 0.293827 2.58686e-20)
(0.632713 0.156442 2.91717e-22)
(1.09115 0.237933 -3.08448e-21)
(1.00734 0.0171189 -9.11617e-21)
(0.342776 -0.0987939 0)
(1.03815 0.25263 -2.72402e-20)
(1.17719 -0.0361991 9.13226e-21)
(1.09656 0.244652 5.12673e-21)
(0.454315 -0.122383 8.12258e-21)
(-0.0476854 -0.261762 -1.23523e-19)
(1.22438 0.060633 0)
(-0.0281049 0.0164649 0)
(1.23892 -0.0246508 8.72657e-21)
(0.456241 -0.209861 -8.74196e-21)
(1.11135 -0.048762 -2.4809e-20)
(1.09061 -0.0520052 0)
(1.01542 -0.0229807 4.43979e-21)
(1.39 -0.324505 2.962e-20)
(0.65858 -0.0319864 -1.24477e-20)
(1.13406 -0.0570602 -4.01287e-21)
(1.09977 -0.0829709 -4.63798e-22)
(0.729537 -0.360558 2.43804e-20)
(1.1179 -0.148204 -1.13494e-20)
(1.11243 0.0138804 0)
(1.22111 0.0958733 0)
(1.15977 -0.147308 1.27416e-21)
(1.194 -0.0185673 -8.25345e-21)
(0.848781 -0.220919 -8.74747e-20)
(1.19606 -0.0876104 -8.91134e-21)
(1.14421 0.0293364 1.47763e-20)
(0.517626 -0.000952103 2.02299e-20)
(0.676688 0.408864 -6.4315e-20)
(0.412264 0.160108 4.83575e-20)
(1.15955 0.173712 -6.1989e-21)
(1.27729 -0.503195 9.87259e-21)
(1.16252 0.069025 -1.57893e-22)
(1.18584 -0.0953743 -1.50996e-21)
(0.95589 -0.25111 9.04846e-20)
(-0.0783093 0.30475 0)
(1.11198 0.145276 -1.9707e-21)
(0.0437703 0.0658675 -2.38296e-20)
(1.24 0.0302446 -7.55202e-21)
(1.27145 -0.0337534 4.59411e-21)
(1.0796 0.0212271 0)
(0.529922 -0.301429 0)
(1.14792 -0.024419 0)
(1.21583 -0.108293 8.72154e-21)
(1.18631 0.0182718 -3.6745e-21)
(1.1403 -0.0673832 1.87793e-22)
(0.480124 0.017188 0)
(0.637876 0.00771681 0)
(0.640732 0.000704806 1.37647e-22)
(0.452573 -0.0156143 0)
(1.22315 -0.0758693 0)
(1.02239 -0.00946604 2.32569e-20)
(0.552834 -0.422104 0)
(0.979997 0.0491463 0)
(1.05168 0.0427364 0)
(1.15822 0.176873 -1.53644e-20)
(1.17013 0.0118401 -7.50163e-21)
(0.958054 -0.0342659 1.16654e-20)
(1.37348 -0.406445 -1.36252e-19)
(0.786859 -0.363565 1.8963e-20)
(1.233 0.210439 4.75309e-21)
(1.08256 0.00352534 0)
(0.244656 0.0186278 0)
(-0.0734485 0.322413 0)
(1.16735 -0.0374748 7.34658e-22)
(1.36065 -0.27368 -4.48772e-20)
(1.20851 -0.0559714 0)
(1.076 0.0629862 -1.14622e-20)
(0.656454 0.0987654 0)
(1.53982 -0.100696 9.73661e-20)
(0.404879 0.504019 1.3252e-19)
(0.380304 -0.0538926 0)
(1.17904 -0.280581 1.46318e-19)
(0.188121 0.508636 0)
(0.369541 -0.393101 7.89999e-21)
(1.14855 -0.0164914 0)
(0.119875 0.330455 1.23574e-20)
(0.98417 -0.0504566 0)
(1.34583 -0.179346 -1.56074e-20)
(-0.151476 -0.148265 -1.10022e-20)
(1.12475 -0.0406785 3.2933e-21)
(0.979977 0.0574994 -1.82888e-20)
(0.59557 -0.555366 -8.70976e-20)
(1.20674 0.116487 -2.36196e-21)
(1.2003 -0.100122 1.35694e-21)
(1.15998 0.230423 -2.83156e-20)
(1.22202 -0.364863 -1.16337e-20)
(1.17317 -0.0379881 1.41981e-21)
(-0.120069 0.479101 -4.2611e-20)
(-0.0724607 -0.0267844 -6.54236e-21)
(1.40887 0.173766 5.67584e-21)
(1.05501 -0.0390254 0)
(0.780206 0.172329 9.53524e-21)
(1.47084 -0.438654 1.07728e-19)
(1.08774 -0.0623335 -8.07171e-20)
(1.37241 0.14113 4.21139e-20)
(1.04919 -0.0291903 7.54863e-21)
(1.07834 -0.0205249 9.75055e-21)
(1.06149 -0.00906566 0)
(1.14179 0.00470767 0)
(1.24986 -0.193789 2.54286e-21)
(1.0869 -0.0175427 -4.49501e-21)
(1.26753 -0.346349 1.23529e-20)
(1.11682 0.0574325 -9.54542e-21)
(1.36274 0.0989935 -3.96594e-20)
(0.443587 -0.00260397 0)
(1.06223 -0.168556 8.47322e-21)
(1.15884 0.0347716 0)
(1.13915 0.042541 -8.20455e-21)
(1.1368 0.0244936 0)
(1.03615 -0.00609817 1.30249e-20)
(1.22624 0.04687 3.40384e-21)
(1.02056 -0.121796 0)
(0.0708681 -0.0293848 1.9769e-19)
(0.891024 -0.231178 -7.09755e-20)
(1.37012 0.24311 -3.02161e-20)
(-0.0934041 -0.200703 4.85444e-20)
(1.1398 0.0165177 -1.39949e-22)
(0.78022 -0.0466872 -5.68672e-21)
(-0.108617 -0.191565 -5.06211e-20)
(-0.00653337 -0.128497 -2.86393e-20)
(1.02378 -0.0260637 0)
(-0.0331331 -0.0503414 0)
(1.10699 0.0933799 0)
(0.114785 -0.134073 0)
(1.10923 -0.037351 0)
(0.174291 0.035279 0)
(1.10723 0.01799 0)
(1.03073 -0.0156596 0)
(1.3512 -0.00660642 -1.59057e-21)
(0.618403 -0.305179 -2.71846e-20)
(-0.195198 -0.0140456 0)
(1.30052 -0.0416155 8.40511e-20)
(1.28812 0.205319 -5.07658e-22)
(1.22648 0.185234 0)
(-0.042299 -0.0497922 0)
(1.15555 0.0113739 -6.09496e-21)
(1.16469 -0.00993524 1.88367e-21)
(1.15167 0.372792 0)
(0.41049 -0.0973079 8.29592e-20)
(1.11944 0.0594651 1.97591e-21)
(0.2715 -0.0546657 -6.61236e-20)
(-0.0546349 0.0232555 -2.92726e-20)
(-0.0261602 0.0465156 7.69751e-20)
(-0.0157438 -0.0743341 -2.82113e-20)
(0.896147 0.116737 5.35188e-21)
(1.14055 0.0228271 -1.75259e-20)
(1.02571 -0.00827376 0)
(1.0723 -0.0563338 -1.93663e-20)
(1.15315 0.00341961 8.06317e-21)
(-0.0127801 -0.110559 1.23862e-19)
(0.981609 -0.0723503 -5.62796e-20)
(0.854312 0.054614 -1.41042e-20)
(1.2427 0.245148 4.47595e-21)
(0.0931735 -0.035049 4.39126e-20)
(0.283454 -0.0382682 -6.08593e-20)
(0.553863 -0.0444677 -7.53354e-20)
(1.25764 -0.0880455 9.56072e-21)
(-0.0626994 -0.0452506 0)
(1.15427 0.131286 -7.98367e-21)
(1.1291 -0.231064 5.2646e-21)
(1.19012 -0.2306 -5.0767e-21)
(1.21908 0.239577 0)
(1.53979 -0.173903 9.618e-20)
(1.18695 0.0274138 -5.2432e-21)
(-0.0222335 -0.100781 -4.41883e-20)
(0.254565 0.0140162 0)
(0.933853 0.0476337 -3.95366e-21)
(1.09748 0.0232565 2.83277e-21)
(0.940229 -0.0438178 3.1171e-20)
(1.16283 0.00565088 3.2612e-21)
(1.1123 0.0476813 0)
(1.24893 -0.156466 -1.89871e-20)
(-0.0137989 -0.219209 -1.02462e-19)
(1.27209 0.0344306 1.78939e-20)
(1.09351 0.162848 -8.53056e-21)
(1.10252 0.0634577 1.0917e-20)
(-0.048222 -0.0960096 2.07517e-20)
(-0.0103607 -0.0164922 -5.87086e-20)
(1.01277 0.289492 0)
(0.500157 0.137985 0)
(1.14277 0.0944826 -2.44798e-20)
(1.04956 0.0670381 1.60548e-20)
(1.11461 0.0534658 0)
(0.91167 0.245791 7.61244e-20)
(0.736905 0.0597849 -1.00899e-20)
(1.09459 0.102953 0)
(1.09229 0.0659301 0)
(1.13476 0.0896425 0)
(1.10231 -0.070496 0)
(1.12073 0.177261 3.65384e-21)
(-0.0404101 0.0394182 3.1964e-20)
(1.22121 -0.101881 1.10693e-20)
(1.51231 -0.137569 -1.10334e-19)
(1.10691 0.111477 -5.62053e-21)
(-0.084365 0.222851 0)
(1.13492 -0.185244 0)
(0.649619 -0.018373 -1.81357e-21)
(0.546615 0.00270873 -5.50238e-20)
(0.0805188 0.0326548 4.47963e-20)
(0.955166 0.0130721 -1.51656e-21)
(0.801462 -0.285973 0)
(0.750197 -0.094409 0)
(1.03953 0.0502615 0)
(0.53264 0.502858 1.12102e-20)
(-0.000464324 -0.0599255 -3.00348e-20)
(1.17539 0.183423 3.55478e-21)
(-0.0280926 -0.185443 8.53934e-20)
(1.20775 -0.0404409 2.63504e-21)
(1.15476 0.298448 5.401e-20)
(1.11387 -0.0721748 7.37493e-21)
(0.204129 0.277326 5.62673e-20)
(1.20161 0.260475 -1.9246e-21)
(0.892875 -0.142469 0)
(0.556882 0.268363 0)
(0.871133 -0.158311 2.27426e-21)
(-0.192473 -0.0437859 0)
(0.606223 0.0291682 3.56348e-21)
(0.638241 -0.442684 -4.36315e-21)
(0.245394 0.0475285 -1.03911e-19)
(1.1393 -0.223788 2.30594e-20)
(1.02591 0.34438 1.09129e-20)
(0.983045 0.00810522 0)
(1.05898 0.226464 4.8753e-22)
(0.658758 0.014172 0)
(1.01852 -0.0229044 -1.70206e-22)
(0.522858 -0.0148913 0)
(0.714514 0.102998 0)
(0.999103 -0.0258936 -8.81431e-21)
(1.41045 0.16084 -6.61554e-21)
(1.19146 -0.0680881 7.71948e-22)
(0.547932 -0.520605 0)
(1.13864 -0.143434 8.27149e-22)
(0.797941 0.353358 7.43249e-20)
(-0.0280588 0.0179929 1.08706e-21)
(1.23584 -0.0072106 3.61074e-21)
(1.22026 0.0389744 -1.87971e-21)
(1.29649 -0.0668561 8.62665e-22)
(0.811056 0.00247825 -7.59917e-21)
(0.0735879 0.0152433 3.46746e-20)
(-0.0128344 -0.178197 -6.83862e-20)
(-0.160375 0.0403144 0)
(-0.233882 0.199771 0)
(1.23979 -0.634434 4.02217e-20)
(1.15015 -0.0332787 -1.38545e-21)
(0.94345 -0.487178 -5.6926e-20)
(1.08448 -0.0521486 1.59524e-20)
(1.34858 0.185812 2.68576e-20)
(0.597902 0.413978 0)
(0.240981 0.397652 -1.23209e-19)
(0.588065 0.45102 0)
(-0.123623 0.0751442 0)
(1.15804 -0.487929 0)
(-0.0326377 -0.160033 3.72132e-22)
(1.16483 0.0169093 0)
(0.491821 -0.123347 1.87196e-20)
(0.583053 0.670146 1.95573e-20)
(1.0994 -0.035374 -1.38203e-20)
(-0.0191149 -0.212113 -1.45914e-19)
(0.344451 -0.410832 1.09173e-20)
(0.453856 0.143138 -1.2395e-20)
(1.19804 0.0895791 0)
(1.34569 0.345688 2.65894e-20)
(1.20717 0.548824 2.89063e-22)
(0.182327 -0.0294257 -2.06955e-20)
(0.988986 0.0924534 2.52184e-20)
(0.9701 -0.0343413 2.32599e-21)
(0.922672 0.0124131 -2.20595e-22)
(-0.00124468 -0.0477963 0)
(0.671529 -0.690648 -2.69514e-20)
(0.613867 0.170467 0)
(0.264822 -0.150921 0)
(-0.0333298 -0.00479553 0)
(0.0716637 -0.224161 -5.7126e-20)
(1.24351 0.00295618 -4.18215e-21)
(-0.0316509 -0.0285508 0)
(-0.0137506 -0.0618016 0)
(1.434 0.106524 -3.92141e-20)
(-0.0365338 -0.143125 6.54279e-20)
(0.112011 0.216191 -1.04662e-19)
(0.405956 0.00182356 0)
(0.176366 -0.30687 7.87729e-20)
(1.17928 -0.243473 0)
(1.01435 -0.293036 0)
(0.0712522 -0.181784 1.40358e-19)
(1.14456 0.0401465 -3.3411e-22)
(1.10877 0.323931 3.17244e-20)
(0.273315 0.0242239 4.29153e-20)
(0.420957 -0.547793 -2.79201e-20)
(1.23719 0.0793237 0)
(1.21257 0.176339 1.94115e-20)
(1.21289 0.200052 -2.38417e-20)
(0.101367 0.0631935 -2.37523e-20)
(-0.0612186 -0.197481 0)
(1.07552 -0.0470148 -1.8681e-20)
(1.11496 -0.22326 -1.14752e-20)
(0.59906 -0.438756 0)
(1.10148 -0.1535 -2.32038e-20)
(-0.18442 0.15706 0)
(0.561799 -0.00188681 0)
(1.29061 0.122451 1.76822e-20)
(1.02302 0.0478341 6.82652e-22)
(1.06202 0.722664 -2.27152e-20)
(0.235094 -0.405596 1.21262e-19)
(1.15983 0.0538385 2.26856e-21)
(1.1957 0.0755326 -4.17741e-21)
(-0.030797 -0.0802022 2.84484e-20)
(0.775732 0.71724 3.62718e-20)
(1.39697 -0.354524 -1.53025e-20)
(0.352995 0.59616 8.70354e-20)
(1.07226 0.00197984 0)
(0.0487919 0.117058 -3.24547e-21)
(0.946679 -0.66484 3.93534e-21)
(0.891032 0.631608 -1.01765e-20)
(0.640802 -0.0245904 -8.15286e-20)
(1.13981 -0.00155631 -1.37282e-20)
(1.07725 -0.0744994 6.21688e-21)
(1.14935 0.0093194 7.34637e-21)
(1.10154 0.117426 7.7745e-21)
(1.13735 -0.107268 0)
(0.909422 0.0927007 1.27538e-20)
(0.882194 0.453672 0)
(1.17296 -0.0777107 -7.92693e-21)
(1.16102 0.111414 5.15371e-21)
(0.752569 0.261674 0)
(0.526542 0.107825 9.90698e-20)
(0.880702 0.691648 -1.32632e-21)
(1.06206 0.275237 -2.43639e-20)
(1.03856 -0.00272351 1.21128e-20)
(0.409498 0.460199 0)
(1.3441 -0.472993 0)
(0.63205 0.224259 3.16913e-21)
(1.2534 0.493893 0)
(-0.0101488 0.0154161 -3.90294e-20)
(1.32327 -0.41221 -2.48049e-20)
(1.15079 0.491246 0)
(0.453702 0.182896 1.73261e-19)
(1.11853 0.309886 -1.07919e-19)
(0.843142 -0.672469 -2.14454e-20)
(1.13346 0.00316969 4.47369e-21)
(0.917167 0.145952 7.32509e-20)
(1.07803 0.159444 6.12111e-20)
(1.05817 0.688034 3.25826e-21)
(0.930689 -0.461723 5.87296e-20)
(1.39058 0.187337 2.36932e-20)
(1.12773 0.00399884 -2.21266e-21)
(0.015132 -0.0970684 1.20317e-19)
(1.12666 -0.727418 4.50233e-20)
(0.904486 -0.751372 4.07535e-20)
(0.26209 -0.378865 0)
(0.976733 -0.15684 6.90356e-20)
(0.358331 0.272454 -4.49827e-19)
(0.0348732 0.00940358 4.24421e-20)
(0.237135 -0.0169247 1.90965e-20)
(0.762847 -0.0561931 -9.48751e-20)
(1.06519 0.509582 0)
(0.981102 0.207554 8.62319e-20)
(1.08248 0.0271799 5.04504e-21)
(0.898206 0.419545 -9.58241e-20)
(0.820598 -0.759919 -5.65425e-21)
(0.929933 0.00589203 -4.89709e-20)
(0.966318 0.467793 0)
(1.06943 -0.18198 1.55048e-20)
(1.43028 -0.515797 1.77762e-20)
(1.25459 -0.338517 1.27843e-20)
(-0.266571 0.295965 3.09796e-20)
(0.197491 -0.0394721 -1.82765e-20)
(0.987283 -0.128198 -5.77933e-20)
(0.343623 0.497866 0)
(0.917094 -0.00392601 3.90183e-20)
(1.1459 0.624762 6.59744e-20)
(0.0593 -0.138419 2.20547e-19)
(-0.0604003 -0.130582 -2.372e-20)
(-0.0866012 -0.255924 5.2316e-20)
(1.09689 0.0227518 -7.02842e-21)
(1.1942 -0.477315 0)
(1.1066 -0.761627 -2.73666e-20)
(0.692852 0.322715 0)
(0.192853 -0.117656 -1.63895e-19)
(1.16549 0.0329049 4.09597e-21)
(-0.0429689 -0.249166 -3.97589e-20)
(1.04695 0.0536395 -1.13756e-20)
(0.121916 0.00377159 5.08546e-20)
(0.85212 0.116476 0)
(1.29887 0.113776 3.87688e-20)
(0.0215947 -0.0411619 -2.16853e-20)
(-0.260949 0.189563 -3.67999e-20)
(-0.242022 0.24976 0)
(0.10587 -0.0224769 0)
(1.25582 0.0720295 -1.34732e-20)
(0.440791 -0.00819079 1.96952e-19)
(1.31994 -0.748453 -4.29695e-20)
(0.893067 0.242588 4.10222e-20)
(1.05555 0.236021 -3.53124e-20)
(0.385568 -0.600617 1.33264e-19)
(1.52062 0.269289 -2.74448e-20)
(0.137577 -0.132608 4.72342e-20)
(0.205181 0.269218 2.00847e-19)
(0.157279 -0.0746003 -1.75393e-19)
(0.966562 -0.514129 -4.07174e-20)
(1.4365 0.375808 2.83188e-20)
(0.594682 -0.714361 4.36846e-20)
(1.10735 -0.065662 -6.56846e-21)
(0.529402 0.0234245 8.96367e-20)
(1.17752 0.281874 -4.373e-20)
(0.65187 0.613799 -4.42293e-20)
(1.40166 -0.63947 0)
(1.40578 0.50832 3.0173e-20)
(1.08609 -0.546603 -1.40067e-20)
(1.37386 0.593462 -8.03779e-20)
(1.13021 0.0156153 0)
(-0.0382535 -0.0211025 0)
(1.2354 0.712808 0)
(1.10996 -0.11286 -1.20267e-20)
(0.760477 -0.32897 -2.02014e-19)
(0.481238 -0.115215 0)
(-0.0528934 -0.0587348 -2.41365e-20)
(1.02914 -0.249434 9.11713e-20)
(-0.182648 0.28482 0)
(0.323171 -0.0116979 1.2345e-20)
(1.1086 0.0156221 0)
(1.40067 0.261883 0)
(1.14167 0.00301712 -4.79081e-21)
(0.370516 -0.331362 0)
(1.00701 0.138802 4.19138e-20)
(1.29686 0.276236 0)
(-0.0867075 -0.111968 1.34982e-21)
(0.82852 -0.424559 0)
(1.49277 0.330243 -4.19454e-20)
(1.22092 0.350611 5.97977e-21)
(0.828162 0.620001 -1.06171e-20)
(0.999903 0.149357 -9.51966e-20)
(0.972261 -0.213543 -4.46658e-20)
(1.43106 0.281925 2.45759e-20)
(0.944707 0.0467131 0)
(0.566791 -0.100851 0)
)
;

boundaryField
{
    FrontBack
    {
        type            empty;
    }
    Top
    {
        type            noSlip;
    }
    In
    {
        type            fixedValue;
        value           uniform (1 0 0);
    }
    Bottom
    {
        type            noSlip;
    }
    Out
    {
        type            zeroGradient;
    }
    circle
    {
        type            noSlip;
    }
}


// ************************************************************************* //
