/*--------------------------------*- C++ -*----------------------------------*\
| =========                 |                                                 |
| \\      /  F ield         | OpenFOAM: The Open Source CFD Toolbox           |
|  \\    /   O peration     | Version:  2412                                  |
|   \\  /    A nd           | Website:  www.openfoam.com                      |
|    \\/     M anipulation  |                                                 |
\*---------------------------------------------------------------------------*/
FoamFile
{
    version     2.0;
    format      ascii;
    arch        "LSB;label=32;scalar=64";
    class       volVectorField;
    location    "0.6";
    object      cellDisplacement;
}
// * * * * * * * * * * * * * * * * * * * * * * * * * * * * * * * * * * * * * //

dimensions      [0 1 0 0 0 0 0];

internalField   nonuniform List<vector> 
1024
(
(0.00205133 -0.00268493 0)
(0.00393354 -0.0048645 0)
(0.00592884 -0.00649454 0)
(0.00809644 -0.00749084 0)
(0.0104524 -0.00776962 0)
(0.012905 -0.00725619 0)
(0.0151704 -0.00588951 0)
(0.0169757 -0.00376877 0)
(0.0180056 -0.00113219 0)
(0.0178408 0.00161573 0)
(0.0165363 0.00397102 0)
(0.0142478 0.00547568 0)
(0.0114635 0.00595932 0)
(0.00846096 0.00541397 0)
(0.00545828 0.00401546 0)
(0.00259155 0.0020662 0)
(0.00903884 -0.0116027 0)
(0.0145425 -0.0172189 0)
(0.0202944 -0.0210587 0)
(0.0265509 -0.023089 0)
(0.0332261 -0.0230907 0)
(0.0399669 -0.0208982 0)
(0.0461622 -0.0164971 0)
(0.0508904 -0.0101635 0)
(0.053369 -0.00261304 0)
(0.0528326 0.00508141 0)
(0.049237 0.0116571 0)
(0.0433567 0.0161326 0)
(0.0358929 0.0179228 0)
(0.0278316 0.0170917 0)
(0.0196047 0.0139048 0)
(0.0115472 0.00896442 0)
(0.0186364 -0.0235381 0)
(0.027337 -0.0313579 0)
(0.036595 -0.0364261 0)
(0.0465659 -0.0385905 0)
(0.0570493 -0.0375938 0)
(0.0674465 -0.0332474 0)
(0.0766798 -0.0256082 0)
(0.0835918 -0.0152535 0)
(0.0868966 -0.00327226 0)
(0.0858017 0.00871317 0)
(0.0804707 0.0190148 0)
(0.0716708 0.026205 0)
(0.0606944 0.0296173 0)
(0.0485695 0.0291147 0)
(0.0361524 0.0251159 0)
(0.023793 0.0182641 0)
(0.0306392 -0.0380595 0)
(0.0422974 -0.0470475 0)
(0.0546975 -0.0523202 0)
(0.0679813 -0.0538037 0)
(0.0817494 -0.0511797 0)
(0.0950873 -0.0442769 0)
(0.106712 -0.03331 0)
(0.115123 -0.019124 0)
(0.118815 -0.00315127 0)
(0.117135 0.0126238 0)
(0.110246 0.0261813 0)
(0.0993052 0.0359807 0)
(0.0855859 0.0411395 0)
(0.0703966 0.0415235 0)
(0.0547099 0.0375082 0)
(0.0389033 0.0297144 0)
(0.0449593 -0.0548056 0)
(0.0592209 -0.0638544 0)
(0.074501 -0.0684871 0)
(0.0906935 -0.0685592 0)
(0.107205 -0.063761 0)
(0.122912 -0.0539988 0)
(0.1362 -0.0396509 0)
(0.145484 -0.021825 0)
(0.149237 -0.00224591 0)
(0.146887 0.0168704 0)
(0.138836 0.033398 0)
(0.1262 0.0456326 0)
(0.110511 0.0527177 0)
(0.0929939 0.0543559 0)
(0.0748654 0.050985 0)
(0.0564669 0.0431546 0)
(0.061415 -0.0732873 0)
(0.0781079 -0.0815114 0)
(0.0958839 -0.0846377 0)
(0.114556 -0.0826474 0)
(0.133281 -0.0752162 0)
(0.150694 -0.0623511 0)
(0.165166 -0.0446392 0)
(0.174803 -0.0233677 0)
(0.178338 -0.000514458 0)
(0.175354 0.0216195 0)
(0.166279 0.0408091 0)
(0.152474 0.0554399 0)
(0.135266 0.0644724 0)
(0.116137 0.0677321 0)
(0.0962569 0.0655404 0)
(0.0759817 0.0584118 0)
(0.0799731 -0.0930836 0)
(0.0987906 -0.0995811 0)
(0.118779 -0.100495 0)
(0.139492 -0.0958643 0)
(0.159902 -0.0854158 0)
(0.178523 -0.0692793 0)
(0.193496 -0.0482223 0)
(0.203102 -0.0237268 0)
(0.206214 0.00211711 0)
(0.202538 0.0269549 0)
(0.192764 0.0486701 0)
(0.177975 0.0655172 0)
(0.159793 0.0766452 0)
(0.139572 0.0817731 0)
(0.118507 0.081189 0)
(0.0970205 0.0754487 0)
(0.100514 -0.113668 0)
(0.121298 -0.117696 0)
(0.143141 -0.115756 0)
(0.165458 -0.107991 0)
(0.187028 -0.0941939 0)
(0.206223 -0.0746744 0)
(0.221253 -0.0503252 0)
(0.230484 -0.0228032 0)
(0.232987 0.00576924 0)
(0.228687 0.0331173 0)
(0.218185 0.0570847 0)
(0.202775 0.0761554 0)
(0.183906 0.0893892 0)
(0.163028 0.0966154 0)
(0.141261 0.098021 0)
(0.11904 0.0941897 0)
(0.12313 -0.134572 0)
(0.145554 -0.135381 0)
(0.168954 -0.130042 0)
(0.19241 -0.118713 0)
(0.214577 -0.101324 0)
(0.233843 -0.0783257 0)
(0.248428 -0.050811 0)
(0.256981 -0.0204647 0)
(0.258769 0.0106191 0)
(0.253749 0.0402066 0)
(0.242676 0.0663495 0)
(0.226752 0.0875099 0)
(0.20751 0.102973 0)
(0.186279 0.112462 0)
(0.164134 0.116169 0)
(0.141597 0.114751 0)
(0.147818 -0.155198 0)
(0.171695 -0.152146 0)
(0.196195 -0.142865 0)
(0.220278 -0.12761 0)
(0.242515 -0.106449 0)
(0.261281 -0.0800092 0)
(0.275066 -0.049448 0)
(0.282684 -0.0164783 0)
(0.283558 0.0168629 0)
(0.277782 0.0485198 0)
(0.266125 0.0766114 0)
(0.249885 0.0999205 0)
(0.230444 0.117637 0)
(0.209051 0.129589 0)
(0.186796 0.135898 0)
(0.164113 0.137254 0)
(0.174851 -0.174867 0)
(0.199766 -0.167352 0)
(0.224948 -0.153658 0)
(0.2491 -0.134188 0)
(0.2708 -0.109152 0)
(0.288618 -0.0793214 0)
(0.301162 -0.0459035 0)
(0.307527 -0.0105689 0)
(0.307276 0.0247734 0)
(0.300653 0.0582311 0)
(0.288517 0.0882731 0)
(0.272036 0.113638 0)
(0.252458 0.13375 0)
(0.231057 0.148325 0)
(0.208741 0.157531 0)
(0.18605 0.161975 0)
(0.204378 -0.192735 0)
(0.23004 -0.180152 0)
(0.25533 -0.161667 0)
(0.278939 -0.137737 0)
(0.299503 -0.108827 0)
(0.315729 -0.075727 0)
(0.326575 -0.0397415 0)
(0.331316 -0.0023656 0)
(0.329774 0.0346648 0)
(0.322288 0.069816 0)
(0.309678 0.101605 0)
(0.292933 0.129114 0)
(0.273291 0.151659 0)
(0.251765 0.169096 0)
(0.229406 0.181403 0)
(0.206559 0.18931 0)
(0.236929 -0.207541 0)
(0.262762 -0.189374 0)
(0.287503 -0.165666 0)
(0.309751 -0.13723 0)
(0.328373 -0.10454 0)
(0.342355 -0.0685461 0)
(0.350971 -0.0303397 0)
(0.353818 0.00866184 0)
(0.350845 0.0471177 0)
(0.342436 0.083642 0)
(0.329247 0.117169 0)
(0.312264 0.146722 0)
(0.29234 0.171893 0)
(0.270589 0.192316 0)
(0.247822 0.208072 0)
(0.224611 0.2197 0)
(0.272931 -0.217372 0)
(0.298185 -0.193 0)
(0.321293 -0.164024 0)
(0.341124 -0.131174 0)
(0.356866 -0.0951732 0)
(0.367902 -0.0567442 0)
(0.373814 -0.0169088 0)
(0.374415 0.0232497 0)
(0.369808 0.0626088 0)
(0.360306 0.10024 0)
(0.346494 0.135201 0)
(0.329031 0.166859 0)
(0.308761 0.194669 0)
(0.286391 0.218401 0)
(0.262796 0.237949 0)
(0.238361 0.253779 0)
(0.312389 -0.21892 0)
(0.335628 -0.188134 0)
(0.355528 -0.154166 0)
(0.371565 -0.117695 0)
(0.383413 -0.0792229 0)
(0.390811 -0.0393861 0)
(0.393584 0.0011326 0)
(0.391702 0.0415993 0)
(0.385278 0.0813114 0)
(0.374561 0.119579 0)
(0.359895 0.155798 0)
(0.341752 0.189415 0)
(0.320635 0.220023 0)
(0.29716 0.247285 0)
(0.271873 0.27106 0)
(0.245213 0.291447 0)
(0.350726 -0.206079 0)
(0.369237 -0.17071 0)
(0.384191 -0.133696 0)
(0.395446 -0.0953952 0)
(0.402892 -0.0561754 0)
(0.406458 -0.0164146 0)
(0.40611 0.0235044 0)
(0.401851 0.0631969 0)
(0.393721 0.102281 0)
(0.3818 0.14038 0)
(0.366202 0.177127 0)
(0.347077 0.212168 0)
(0.32461 0.245166 0)
(0.299016 0.275803 0)
(0.270543 0.303783 0)
(0.239464 0.328838 0)
(0.00262492 0.0019847 0)
(0.00483188 0.00387779 0)
(0.00643109 0.0058135 0)
(0.00744771 0.00797333 0)
(0.00775448 0.0103349 0)
(0.00726041 0.0128031 0)
(0.00590381 0.0150883 0)
(0.00378708 0.0169126 0)
(0.00114977 0.017962 0)
(-0.00160199 0.0178159 0)
(-0.00395842 0.0165251 0)
(-0.00546591 0.0142449 0)
(-0.00594825 0.0114676 0)
(-0.00540596 0.0084695 0)
(-0.00400481 0.00547173 0)
(-0.00204547 0.00260887 0)
(0.011481 0.0088815 0)
(0.0170509 0.0142822 0)
(0.0209389 0.0200044 0)
(0.0229872 0.0261949 0)
(0.0230657 0.0328943 0)
(0.0209246 0.0396777 0)
(0.0165473 0.0459272 0)
(0.0102206 0.0507121 0)
(0.00266473 0.0532474 0)
(-0.00503851 0.0527604 0)
(-0.0116215 0.0492018 0)
(-0.0160959 0.0433487 0)
(-0.0178952 0.0359028 0)
(-0.0170626 0.0278587 0)
(-0.0138717 0.0196462 0)
(-0.00891709 0.0115984 0)
(0.023303 0.0183257 0)
(0.0311642 0.0269641 0)
(0.0362338 0.036095 0)
(0.0384761 0.0460227 0)
(0.0375822 0.056532 0)
(0.0333086 0.0669936 0)
(0.0256996 0.0763152 0)
(0.0153503 0.0833187 0)
(0.00335837 0.0867103 0)
(-0.00864275 0.0856886 0)
(-0.0189513 0.0804135 0)
(-0.0261476 0.0716552 0)
(-0.0295625 0.0607132 0)
(-0.0290659 0.0486143 0)
(-0.0250669 0.0362195 0)
(-0.018201 0.0238782 0)
(0.0377997 0.0302436 0)
(0.0467724 0.0417393 0)
(0.052137 0.054068 0)
(0.0537028 0.067283 0)
(0.0511983 0.081079 0)
(0.0443795 0.0945022 0)
(0.0334482 0.106242 0)
(0.0192618 0.114775 0)
(0.00327024 0.118578 0)
(-0.012524 0.116989 0)
(-0.0260938 0.110169 0)
(-0.0358953 0.0992854 0)
(-0.0410637 0.0856098 0)
(-0.0414551 0.0704585 0)
(-0.0374476 0.0548029 0)
(-0.0296519 0.0390184 0)
(0.0544715 0.0444163 0)
(0.0636049 0.0585781 0)
(0.0682977 0.0737109 0)
(0.0684946 0.0898716 0)
(0.0638253 0.106417 0)
(0.0541519 0.122226 0)
(0.0398348 0.135654 0)
(0.0220007 0.145084 0)
(0.00239594 0.148964 0)
(-0.0167451 0.146716 0)
(-0.0332843 0.138746 0)
(-0.0455262 0.126175 0)
(-0.052618 0.110544 0)
(-0.0542719 0.0930727 0)
(-0.0509208 0.0749815 0)
(-0.0431013 0.0566115 0)
(0.0729673 0.0608012 0)
(0.0812352 0.0773022 0)
(0.0844953 0.0950125 0)
(0.0826294 0.113638 0)
(0.0753299 0.132414 0)
(0.0625509 0.149948 0)
(0.0448675 0.164577 0)
(0.0235788 0.174374 0)
(0.000691684 0.178045 0)
(-0.0214703 0.17517 0)
(-0.0406759 0.166181 0)
(-0.0553126 0.152452 0)
(-0.0643566 0.135308 0)
(-0.0676384 0.116233 0)
(-0.0654783 0.0963945 0)
(-0.0583803 0.0761474 0)
(0.0927363 0.0792209 0)
(0.0993636 0.097937 0)
(0.100385 0.117797 0)
(0.095902 0.138516 0)
(0.0855812 0.159 0)
(0.0695237 0.177758 0)
(0.0484851 0.192898 0)
(0.0239638 0.20267 0)
(-0.0019195 0.20592 0)
(-0.0267898 0.202352 0)
(-0.0485216 0.19267 0)
(-0.0653781 0.17796 0)
(-0.0765196 0.159849 0)
(-0.0816766 0.139685 0)
(-0.0811374 0.11866 0)
(-0.0754463 0.0972021 0)
(0.113364 0.0997093 0)
(0.117495 0.120312 0)
(0.115712 0.142131 0)
(0.108084 0.164464 0)
(0.094406 0.186134 0)
(0.0749498 0.205482 0)
(0.0506095 0.220682 0)
(0.0230559 0.230072 0)
(-0.00556075 0.232707 0)
(-0.0329433 0.228514 0)
(-0.0569307 0.218102 0)
(-0.0760128 0.202776 0)
(-0.0892634 0.18398 0)
(-0.0965262 0.163157 0)
(-0.0979871 0.141424 0)
(-0.0942235 0.119228 0)
(0.134273 0.122205 0)
(0.135243 0.14456 0)
(0.130051 0.167903 0)
(0.118863 0.191442 0)
(0.101571 0.21374 0)
(0.0786182 0.233166 0)
(0.0511012 0.247911 0)
(0.020718 0.25661 0)
(-0.0104111 0.25852 0)
(-0.0400349 0.2536 0)
(-0.0662001 0.242616 0)
(-0.0873736 0.226774 0)
(-0.10286 0.207603 0)
(-0.112393 0.186418 0)
(-0.116165 0.164302 0)
(-0.114827 0.141783 0)
(0.15495 0.146888 0)
(0.152049 0.17065 0)
(0.142934 0.195195 0)
(0.127804 0.219377 0)
(0.106715 0.241768 0)
(0.0803025 0.260693 0)
(0.0497263 0.274626 0)
(0.0167175 0.282372 0)
(-0.0166687 0.283351 0)
(-0.0483619 0.277665 0)
(-0.0764756 0.266091 0)
(-0.0998042 0.24993 0)
(-0.117552 0.230548 0)
(-0.129558 0.209199 0)
(-0.135936 0.186962 0)
(-0.137373 0.164284 0)
(0.17466 0.173903 0)
(0.167313 0.198816 0)
(0.153772 0.224039 0)
(0.134404 0.248319 0)
(0.109418 0.270172 0)
(0.0795959 0.288137 0)
(0.0461553 0.300808 0)
(0.0107797 0.307281 0)
(-0.0246054 0.307118 0)
(-0.0580961 0.300573 0)
(-0.0881631 0.288511 0)
(-0.113555 0.272094 0)
(-0.133708 0.252569 0)
(-0.148343 0.231197 0)
(-0.157627 0.208911 0)
(-0.16217 0.186206 0)
(0.192583 0.203583 0)
(0.180147 0.229245 0)
(0.161797 0.254607 0)
(0.137943 0.27833 0)
(0.109065 0.299021 0)
(0.0759624 0.315365 0)
(0.0399502 0.326313 0)
(0.00253562 0.331137 0)
(-0.0345321 0.329664 0)
(-0.0697136 0.322242 0)
(-0.101529 0.309688 0)
(-0.129071 0.292995 0)
(-0.151663 0.273387 0)
(-0.169169 0.251885 0)
(-0.181558 0.229538 0)
(-0.189574 0.206688 0)
(0.207438 0.236364 0)
(0.189396 0.262222 0)
(0.165781 0.287016 0)
(0.137395 0.309341 0)
(0.104722 0.32805 0)
(0.0687208 0.342112 0)
(0.0304907 0.350799 0)
(-0.008542 0.353703 0)
(-0.0470275 0.35078 0)
(-0.0835771 0.342413 0)
(-0.117129 0.329265 0)
(-0.146714 0.312312 0)
(-0.171931 0.292412 0)
(-0.192413 0.270671 0)
(-0.208244 0.247905 0)
(-0.219951 0.224683 0)
(0.217324 0.272633 0)
(0.193027 0.297899 0)
(0.164102 0.321035 0)
(0.131277 0.340906 0)
(0.0952818 0.356694 0)
(0.0568462 0.367773 0)
(0.0169948 0.373723 0)
(-0.0231839 0.374357 0)
(-0.062562 0.369776 0)
(-0.10021 0.360299 0)
(-0.135188 0.346507 0)
(-0.166871 0.32906 0)
(-0.194712 0.308798 0)
(-0.218487 0.286431 0)
(-0.238085 0.262832 0)
(-0.25397 0.238382 0)
(0.218909 0.31229 0)
(0.188152 0.335532 0)
(0.1542 0.355443 0)
(0.117735 0.371494 0)
(0.0792626 0.383357 0)
(0.0394215 0.390769 0)
(-0.00110379 0.393555 0)
(-0.0415782 0.391683 0)
(-0.0812976 0.385268 0)
(-0.119572 0.374559 0)
(-0.155798 0.3599 0)
(-0.189426 0.341761 0)
(-0.220048 0.320646 0)
(-0.247328 0.297169 0)
(-0.271125 0.271877 0)
(-0.291534 0.245209 0)
(0.206079 0.350726 0)
(0.17071 0.369237 0)
(0.133696 0.384191 0)
(0.0953952 0.395446 0)
(0.0561754 0.402892 0)
(0.0164146 0.406458 0)
(-0.0235044 0.40611 0)
(-0.0631969 0.401851 0)
(-0.102281 0.393721 0)
(-0.14038 0.3818 0)
(-0.177127 0.366202 0)
(-0.212168 0.347077 0)
(-0.245166 0.32461 0)
(-0.275803 0.299016 0)
(-0.303783 0.270543 0)
(-0.328838 0.239464 0)
(-0.00196743 0.00264284 0)
(-0.00386774 0.00485618 0)
(-0.005822 0.00645275 0)
(-0.0079978 0.00746885 0)
(-0.0103753 0.00777053 0)
(-0.012854 0.0072682 0)
(-0.015143 0.00590363 0)
(-0.0169607 0.00378639 0)
(-0.0179993 0.00115255 0)
(-0.0178415 -0.00159348 0)
(-0.0165435 -0.00394731 0)
(-0.0142595 -0.00545223 0)
(-0.0114793 -0.0059364 0)
(-0.00847773 -0.00539451 0)
(-0.00547433 -0.0039998 0)
(-0.00260418 -0.00205194 0)
(-0.00883294 0.01154 0)
(-0.0142795 0.0171132 0)
(-0.020048 0.0210079 0)
(-0.0262904 0.0230417 0)
(-0.033024 0.0231017 0)
(-0.0398299 0.0209367 0)
(-0.0460832 0.0165452 0)
(-0.0508486 0.0102182 0)
(-0.0533527 0.00267323 0)
(-0.052836 -0.00501676 0)
(-0.0492561 -0.0115892 0)
(-0.0433911 -0.0160624 0)
(-0.0359361 -0.0178565 0)
(-0.0278814 -0.0170299 0)
(-0.0196538 -0.0138516 0)
(-0.0115886 -0.00891861 0)
(-0.0182733 0.0233949 0)
(-0.0269791 0.0312699 0)
(-0.0361934 0.0363361 0)
(-0.0461952 0.0385587 0)
(-0.0567531 0.0376311 0)
(-0.0672415 0.0333201 0)
(-0.0765592 0.0256911 0)
(-0.0835292 0.0153442 0)
(-0.0868738 0.00336923 0)
(-0.0858085 -0.00861089 0)
(-0.0805027 -0.0189069 0)
(-0.0717238 -0.0260948 0)
(-0.0607641 -0.0295078 0)
(-0.0486486 -0.0290122 0)
(-0.0362319 -0.0250249 0)
(-0.023864 -0.0181845 0)
(-0.0301991 0.03793 0)
(-0.041793 0.0469099 0)
(-0.0542292 0.0522691 0)
(-0.0675348 0.0538013 0)
(-0.0813867 0.0512498 0)
(-0.0948342 0.0443836 0)
(-0.106562 0.0334289 0)
(-0.115047 0.0192483 0)
(-0.11879 0.00328047 0)
(-0.117148 -0.0124892 0)
(-0.110289 -0.0260406 0)
(-0.0993757 -0.0358344 0)
(-0.0856769 -0.0409936 0)
(-0.0705012 -0.0413832 0)
(-0.0548166 -0.0373807 0)
(-0.0390011 -0.0296033 0)
(-0.0444006 0.054631 0)
(-0.0586811 0.0637717 0)
(-0.0739381 0.068445 0)
(-0.0901995 0.0686004 0)
(-0.106806 0.0638698 0)
(-0.122634 0.0541415 0)
(-0.136034 0.0398013 0)
(-0.145402 0.0219775 0)
(-0.149213 0.00240117 0)
(-0.146906 -0.0167105 0)
(-0.13889 -0.0332303 0)
(-0.126284 -0.0454584 0)
(-0.11062 -0.05254 0)
(-0.093119 -0.0541831 0)
(-0.0749947 -0.0508254 0)
(-0.0565889 -0.0430134 0)
(-0.0608266 0.0731526 0)
(-0.0774598 0.0814164 0)
(-0.0953058 0.0846505 0)
(-0.114035 0.0827297 0)
(-0.132871 0.0753607 0)
(-0.150411 0.0625232 0)
(-0.165001 0.0448161 0)
(-0.174725 0.0235422 0)
(-0.17832 0.000688612 0)
(-0.17538 -0.0214412 0)
(-0.166342 -0.0406229 0)
(-0.152569 -0.055244 0)
(-0.135389 -0.0642715 0)
(-0.116278 -0.0675337 0)
(-0.0964035 -0.0653543 0)
(-0.0761224 -0.0582459 0)
(-0.0792955 0.092935 0)
(-0.098154 0.0995509 0)
(-0.118147 0.100535 0)
(-0.138972 0.0959866 0)
(-0.159508 0.0855903 0)
(-0.178261 0.0694738 0)
(-0.193347 0.0484159 0)
(-0.203036 0.0239139 0)
(-0.206206 -0.00193274 0)
(-0.202572 -0.0267673 0)
(-0.192835 -0.0484729 0)
(-0.178078 -0.0653092 0)
(-0.159924 -0.0764291 0)
(-0.139722 -0.0815573 0)
(-0.118665 -0.0809843 0)
(-0.0971742 -0.0752644 0)
(-0.0998393 0.113567 0)
(-0.120581 0.117675 0)
(-0.142537 0.115842 0)
(-0.164963 0.108145 0)
(-0.186673 0.09439 0)
(-0.205999 0.0748805 0)
(-0.221134 0.0505247 0)
(-0.230438 0.0229933 0)
(-0.232991 -0.00558363 0)
(-0.228728 -0.0329284 0)
(-0.21826 -0.056886 0)
(-0.202882 -0.0759439 0)
(-0.18404 -0.0891674 0)
(-0.163181 -0.0963917 0)
(-0.141423 -0.0978067 0)
(-0.1192 -0.0939944 0)
(-0.122388 0.134467 0)
(-0.144884 0.135402 0)
(-0.168345 0.130156 0)
(-0.191964 0.118893 0)
(-0.214282 0.101531 0)
(-0.233673 0.0785318 0)
(-0.248346 0.051006 0)
(-0.256957 0.0206478 0)
(-0.258786 -0.0104412 0)
(-0.253797 -0.0400256 0)
(-0.242753 -0.0661581 0)
(-0.226859 -0.0873041 0)
(-0.207642 -0.102756 0)
(-0.18643 -0.112241 0)
(-0.164293 -0.115955 0)
(-0.141756 -0.114556 0)
(-0.14713 0.155118 0)
(-0.171015 0.152182 0)
(-0.195659 0.143006 0)
(-0.219894 0.127805 0)
(-0.242284 0.106656 0)
(-0.261163 0.0802074 0)
(-0.27502 0.0496285 0)
(-0.282682 0.0166459 0)
(-0.283584 -0.016701 0)
(-0.277833 -0.0483548 0)
(-0.266202 -0.0764355 0)
(-0.249986 -0.0997305 0)
(-0.230568 -0.117436 0)
(-0.209191 -0.129384 0)
(-0.186943 -0.1357 0)
(-0.164261 -0.13707 0)
(-0.174205 0.174792 0)
(-0.199209 0.167408 0)
(-0.224494 0.153811 0)
(-0.248798 0.134383 0)
(-0.270632 0.109348 0)
(-0.288542 0.0795015 0)
(-0.301141 0.0460645 0)
(-0.307539 0.010715 0)
(-0.307309 -0.0246336 0)
(-0.300704 -0.0580886 0)
(-0.288588 -0.0881211 0)
(-0.272127 -0.113475 0)
(-0.252565 -0.133577 0)
(-0.231176 -0.14815 0)
(-0.208868 -0.15736 0)
(-0.186179 -0.161817 0)
(-0.203914 0.192682 0)
(-0.229627 0.180204 0)
(-0.255015 0.161805 0)
(-0.278735 0.137905 0)
(-0.299393 0.108995 0)
(-0.315684 0.0758798 0)
(-0.326568 0.0398763 0)
(-0.331332 0.00248575 0)
(-0.329805 -0.0345516 0)
(-0.322333 -0.0697018 0)
(-0.309737 -0.101485 0)
(-0.293006 -0.128986 0)
(-0.273376 -0.151525 0)
(-0.251858 -0.168961 0)
(-0.229505 -0.181271 0)
(-0.20666 -0.189188 0)
(-0.236667 0.207486 0)
(-0.262541 0.189413 0)
(-0.287333 0.165765 0)
(-0.309638 0.137353 0)
(-0.328312 0.104664 0)
(-0.34233 0.0686604 0)
(-0.35097 0.0304407 0)
(-0.353831 -0.00857268 0)
(-0.35087 -0.0470355 0)
(-0.342469 -0.0835608 0)
(-0.32929 -0.117085 0)
(-0.312315 -0.146634 0)
(-0.292398 -0.171802 0)
(-0.270652 -0.192225 0)
(-0.247889 -0.207985 0)
(-0.224681 -0.219619 0)
(-0.272849 0.21733 0)
(-0.298109 0.193016 0)
(-0.321229 0.164078 0)
(-0.341079 0.131244 0)
(-0.356839 0.0952456 0)
(-0.36789 0.0568127 0)
(-0.373814 0.0169701 0)
(-0.374424 -0.023196 0)
(-0.369823 -0.0625601 0)
(-0.360326 -0.100193 0)
(-0.346519 -0.135153 0)
(-0.32906 -0.166811 0)
(-0.308793 -0.19462 0)
(-0.286426 -0.218353 0)
(-0.262833 -0.237904 0)
(-0.238399 -0.253739 0)
(-0.312385 0.218898 0)
(-0.335616 0.188138 0)
(-0.355515 0.154185 0)
(-0.371554 0.11772 0)
(-0.383406 0.0792495 0)
(-0.390807 0.0394116 0)
(-0.393584 -0.00110969 0)
(-0.391705 -0.0415792 0)
(-0.385283 -0.0812935 0)
(-0.374569 -0.119562 0)
(-0.359904 -0.155781 0)
(-0.341762 -0.189399 0)
(-0.320647 -0.220007 0)
(-0.297172 -0.247269 0)
(-0.271886 -0.271046 0)
(-0.245227 -0.291434 0)
(-0.350726 0.206079 0)
(-0.369237 0.17071 0)
(-0.384191 0.133696 0)
(-0.395446 0.0953952 0)
(-0.402892 0.0561754 0)
(-0.406458 0.0164146 0)
(-0.40611 -0.0235044 0)
(-0.401851 -0.0631969 0)
(-0.393721 -0.102281 0)
(-0.3818 -0.14038 0)
(-0.366202 -0.177127 0)
(-0.347077 -0.212168 0)
(-0.32461 -0.245166 0)
(-0.299016 -0.275803 0)
(-0.270543 -0.303783 0)
(-0.239464 -0.328838 0)
(-0.00263792 -0.00196983 0)
(-0.00484834 -0.00386115 0)
(-0.00644555 -0.00579935 0)
(-0.00746097 -0.00796008 0)
(-0.00776562 -0.0103241 0)
(-0.00726803 -0.0127974 0)
(-0.00590711 -0.01509 0)
(-0.00378401 -0.0169252 0)
(-0.00113332 -0.0179871 0)
(0.00164518 -0.0179229 0)
(0.00400368 -0.0166232 0)
(0.00550387 -0.0143183 0)
(0.005984 -0.0115126 0)
(0.00545648 -0.00852043 0)
(0.00405663 -0.00550336 0)
(0.00211147 -0.00263834 0)
(-0.0115242 -0.00883252 0)
(-0.0170958 -0.0142368 0)
(-0.0209826 -0.0199603 0)
(-0.0230237 -0.0261597 0)
(-0.0230958 -0.0328673 0)
(-0.020945 -0.0396655 0)
(-0.0165556 -0.0459354 0)
(-0.0102074 -0.0507503 0)
(-0.00260463 -0.0533597 0)
(0.00514252 -0.0529328 0)
(0.0117395 -0.0494538 0)
(0.0162021 -0.0435283 0)
(0.018036 -0.0361111 0)
(0.0172117 -0.0280087 0)
(0.0140479 -0.0197676 0)
(0.00909704 -0.0116718 0)
(-0.0233728 -0.0182479 0)
(-0.0312375 -0.0268872 0)
(-0.0363011 -0.0360276 0)
(-0.038534 -0.0459676 0)
(-0.0376283 -0.0564931 0)
(-0.0333389 -0.0669795 0)
(-0.0257098 -0.0763336 0)
(-0.0153244 -0.0833866 0)
(-0.00326856 -0.0868536 0)
(0.00881363 -0.0859902 0)
(0.0191352 -0.0807533 0)
(0.0263269 -0.0719442 0)
(0.0297667 -0.0609835 0)
(0.029308 -0.0488544 0)
(0.0253346 -0.0363946 0)
(0.0184935 -0.024002 0)
(-0.0378963 -0.0301355 0)
(-0.0468687 -0.0416372 0)
(-0.0522256 -0.0539786 0)
(-0.0537779 -0.0672131 0)
(-0.0512566 -0.0810335 0)
(-0.0444167 -0.09449 0)
(-0.0334567 -0.106274 0)
(-0.0192207 -0.114869 0)
(-0.00313775 -0.118786 0)
(0.0127314 -0.117293 0)
(0.0263322 -0.110574 0)
(0.0361469 -0.0996638 0)
(0.0413605 -0.0859923 0)
(0.0417765 -0.0707634 0)
(0.0378161 -0.0550473 0)
(0.0300377 -0.0391813 0)
(-0.0545899 -0.0442831 0)
(-0.0637207 -0.0584537 0)
(-0.0684023 -0.0736057 0)
(-0.0685823 -0.089792 0)
(-0.0638918 -0.10637 0)
(-0.0541913 -0.122222 0)
(-0.0398385 -0.135703 0)
(-0.0219399 -0.145208 0)
(-0.00223778 -0.149183 0)
(0.0170087 -0.147091 0)
(0.0335789 -0.139184 0)
(0.0458634 -0.126665 0)
(0.0529672 -0.110959 0)
(0.054671 -0.0934358 0)
(0.0513586 -0.0752534 0)
(0.0435656 -0.0567986 0)
(-0.0731031 -0.0606471 0)
(-0.0813649 -0.0771618 0)
(-0.0846104 -0.0948973 0)
(-0.082725 -0.113554 0)
(-0.0754002 -0.13237 0)
(-0.06259 -0.149953 0)
(-0.0448626 -0.164643 0)
(-0.0234966 -0.174521 0)
(-0.000491042 -0.178312 0)
(0.0217551 -0.175528 0)
(0.0410175 -0.166644 0)
(0.0556877 -0.152938 0)
(0.0647812 -0.135783 0)
(0.0681002 -0.116624 0)
(0.0659938 -0.0967053 0)
(0.0589148 -0.0763601 0)
(-0.0928838 -0.0790518 0)
(-0.0995006 -0.0977883 0)
(-0.100506 -0.117677 0)
(-0.0959999 -0.138434 0)
(-0.0856507 -0.158963 0)
(-0.0695577 -0.177776 0)
(-0.0484673 -0.192983 0)
(-0.0238565 -0.202842 0)
(0.00213749 -0.206182 0)
(0.0271218 -0.20275 0)
(0.0488964 -0.193134 0)
(0.0658115 -0.178476 0)
(0.0769843 -0.160326 0)
(0.0822038 -0.140106 0)
(0.0817021 -0.118976 0)
(0.0760248 -0.0974097 0)
(-0.113516 -0.0995341 0)
(-0.117634 -0.120161 0)
(-0.115831 -0.142016 0)
(-0.108179 -0.164389 0)
(-0.0944707 -0.186109 0)
(-0.074976 -0.205514 0)
(-0.0505754 -0.220785 0)
(-0.0229277 -0.230256 0)
(0.00581465 -0.233002 0)
(0.0332722 -0.228883 0)
(0.0573366 -0.218571 0)
(0.0764634 -0.203274 0)
(0.0897874 -0.184477 0)
(0.0970941 -0.163572 0)
(0.0985991 -0.141741 0)
(0.0948548 -0.119449 0)
(-0.134423 -0.122031 0)
(-0.135376 -0.144416 0)
(-0.130164 -0.167796 0)
(-0.11895 -0.191379 0)
(-0.101627 -0.213727 0)
(-0.0786313 -0.233213 0)
(-0.0510498 -0.248027 0)
(-0.0205667 -0.25681 0)
(0.0106584 -0.258791 0)
(0.0403919 -0.25398 0)
(0.0666041 -0.243062 0)
(0.0878635 -0.227277 0)
(0.1034 -0.208079 0)
(0.112999 -0.186827 0)
(0.116806 -0.16462 0)
(0.115488 -0.141999 0)
(-0.155088 -0.146728 0)
(-0.152171 -0.17052 0)
(-0.143034 -0.195104 0)
(-0.127879 -0.219329 0)
(-0.106758 -0.24177 0)
(-0.0803016 -0.260752 0)
(-0.0496576 -0.274751 0)
(-0.0165617 -0.282564 0)
(0.0169368 -0.283629 0)
(0.0486816 -0.278008 0)
(0.076884 -0.266523 0)
(0.100273 -0.250394 0)
(0.118104 -0.230994 0)
(0.130154 -0.20959 0)
(0.136578 -0.187263 0)
(0.138033 -0.164513 0)
(-0.174781 -0.173766 0)
(-0.167415 -0.198711 0)
(-0.153854 -0.223968 0)
(-0.134463 -0.248288 0)
(-0.109445 -0.270188 0)
(-0.07958 -0.288204 0)
(-0.0460771 -0.300932 0)
(-0.0106157 -0.307466 0)
(0.0248285 -0.307355 0)
(0.0584087 -0.300892 0)
(0.0885154 -0.288895 0)
(0.113998 -0.272499 0)
(0.134199 -0.252969 0)
(0.148889 -0.231531 0)
(0.158185 -0.2092 0)
(0.162773 -0.186405 0)
(-0.192677 -0.20348 0)
(-0.180226 -0.229169 0)
(-0.161858 -0.254561 0)
(-0.137982 -0.278318 0)
(-0.109076 -0.299046 0)
(-0.0759346 -0.315433 0)
(-0.0398681 -0.326425 0)
(-0.00239799 -0.331291 0)
(0.0347496 -0.329872 0)
(0.0699453 -0.322515 0)
(0.101842 -0.309994 0)
(0.129415 -0.293336 0)
(0.152068 -0.273686 0)
(0.169576 -0.252176 0)
(0.181997 -0.229767 0)
(0.189995 -0.206888 0)
(-0.207503 -0.236298 0)
(-0.189449 -0.262177 0)
(-0.165818 -0.286994 0)
(-0.137416 -0.309343 0)
(-0.10472 -0.328081 0)
(-0.0686882 -0.342172 0)
(-0.0304191 -0.350888 0)
(0.00866781 -0.353823 0)
(0.0471692 -0.350943 0)
(0.0837743 -0.342605 0)
(0.117333 -0.329505 0)
(0.146974 -0.31253 0)
(0.172184 -0.292648 0)
(0.192679 -0.270868 0)
(0.208461 -0.24812 0)
(0.220192 -0.224823 0)
(-0.21736 -0.272602 0)
(-0.193054 -0.297881 0)
(-0.16412 -0.32103 0)
(-0.131283 -0.340916 0)
(-0.0952735 -0.356719 0)
(-0.056818 -0.367814 0)
(-0.0169406 -0.373781 0)
(0.0232576 -0.374434 0)
(0.0626638 -0.369872 0)
(0.100314 -0.360425 0)
(0.135321 -0.346632 0)
(0.167002 -0.3292 0)
(0.194849 -0.308921 0)
(0.218585 -0.286579 0)
(0.238169 -0.262953 0)
(0.254013 -0.238534 0)
(-0.218921 -0.312282 0)
(-0.188161 -0.335529 0)
(-0.154205 -0.355445 0)
(-0.117735 -0.371501 0)
(-0.0792565 -0.38337 0)
(-0.0394081 -0.390787 0)
(0.00112698 -0.393578 0)
(0.0416102 -0.391713 0)
(0.0813339 -0.385307 0)
(0.119614 -0.374604 0)
(0.155844 -0.359947 0)
(0.189472 -0.34181 0)
(0.220086 -0.320696 0)
(0.247352 -0.297222 0)
(0.271118 -0.271958 0)
(0.29153 -0.245268 0)
(-0.206079 -0.350726 0)
(-0.17071 -0.369237 0)
(-0.133696 -0.384191 0)
(-0.0953952 -0.395446 0)
(-0.0561754 -0.402892 0)
(-0.0164146 -0.406458 0)
(0.0235044 -0.40611 0)
(0.0631969 -0.401851 0)
(0.102281 -0.393721 0)
(0.14038 -0.3818 0)
(0.177127 -0.366202 0)
(0.212168 -0.347077 0)
(0.245166 -0.32461 0)
(0.275803 -0.299016 0)
(0.303783 -0.270543 0)
(0.328838 -0.239464 0)
)
;

boundaryField
{
    walls
    {
        type            cellMotion;
        value           uniform (0 0 0);
    }
    cylinder
    {
        type            cellMotion;
        value           nonuniform List<vector> 
64
(
(0.350726 -0.206079 0)
(0.369237 -0.17071 0)
(0.384191 -0.133696 0)
(0.395446 -0.0953952 0)
(0.402892 -0.0561754 0)
(0.406458 -0.0164146 0)
(0.40611 0.0235044 0)
(0.401851 0.0631969 0)
(0.393721 0.102281 0)
(0.3818 0.14038 0)
(0.366202 0.177127 0)
(0.347077 0.212168 0)
(0.32461 0.245166 0)
(0.299016 0.275803 0)
(0.270543 0.303783 0)
(0.239464 0.328838 0)
(0.206079 0.350726 0)
(0.17071 0.369237 0)
(0.133696 0.384191 0)
(0.0953952 0.395446 0)
(0.0561754 0.402892 0)
(0.0164146 0.406458 0)
(-0.0235044 0.40611 0)
(-0.0631969 0.401851 0)
(-0.102281 0.393721 0)
(-0.14038 0.3818 0)
(-0.177127 0.366202 0)
(-0.212168 0.347077 0)
(-0.245166 0.32461 0)
(-0.275803 0.299016 0)
(-0.303783 0.270543 0)
(-0.328838 0.239464 0)
(-0.350726 0.206079 0)
(-0.369237 0.17071 0)
(-0.384191 0.133696 0)
(-0.395446 0.0953952 0)
(-0.402892 0.0561754 0)
(-0.406458 0.0164146 0)
(-0.40611 -0.0235044 0)
(-0.401851 -0.0631969 0)
(-0.393721 -0.102281 0)
(-0.3818 -0.14038 0)
(-0.366202 -0.177127 0)
(-0.347077 -0.212168 0)
(-0.32461 -0.245166 0)
(-0.299016 -0.275803 0)
(-0.270543 -0.303783 0)
(-0.239464 -0.328838 0)
(-0.206079 -0.350726 0)
(-0.17071 -0.369237 0)
(-0.133696 -0.384191 0)
(-0.0953952 -0.395446 0)
(-0.0561754 -0.402892 0)
(-0.0164146 -0.406458 0)
(0.0235044 -0.40611 0)
(0.0631969 -0.401851 0)
(0.102281 -0.393721 0)
(0.14038 -0.3818 0)
(0.177127 -0.366202 0)
(0.212168 -0.347077 0)
(0.245166 -0.32461 0)
(0.275803 -0.299016 0)
(0.303783 -0.270543 0)
(0.328838 -0.239464 0)
)
;
    }
    outlet
    {
        type            cellMotion;
        value           uniform (0 0 0);
    }
    inlet
    {
        type            cellMotion;
        value           uniform (0 0 0);
    }
    frontAndBack
    {
        type            empty;
    }
}


// ************************************************************************* //
