/*--------------------------------*- C++ -*----------------------------------*\
| =========                 |                                                 |
| \\      /  F ield         | OpenFOAM: The Open Source CFD Toolbox           |
|  \\    /   O peration     | Version:  2412                                  |
|   \\  /    A nd           | Website:  www.openfoam.com                      |
|    \\/     M anipulation  |                                                 |
\*---------------------------------------------------------------------------*/
FoamFile
{
    version     2.0;
    format      ascii;
    arch        "LSB;label=32;scalar=64";
    class       surfaceScalarField;
    location    "0.6";
    object      meshPhi;
}
// * * * * * * * * * * * * * * * * * * * * * * * * * * * * * * * * * * * * * //

dimensions      [0 3 -1 0 0 0 0];

internalField   nonuniform List<scalar> 
1984
(
0.00214751
-0.00514377
-0.001869
0.00248596
-0.00669237
0.00263792
-0.00793051
0.00267024
-0.00841171
0.00263066
-0.00832295
0.0025365
-0.00768389
0.00229612
-0.00644187
0.00235201
-0.00480147
0.00266677
-0.00303517
0.00268573
-0.0010016
0.00272821
0.00132652
0.00264181
0.00334623
0.00238709
0.00453148
0.00197294
0.00476588
0.00132138
0.00408522
0.00318414
0.00106156
0.00641858
-0.0101473
-0.00570555
0.0073793
-0.0126842
0.00783352
-0.0148283
0.00793184
-0.015624
0.00783526
-0.0153416
0.00766138
-0.0141585
0.00717106
-0.0120272
0.00725417
-0.00904651
0.00789326
-0.00561193
0.00790646
-0.00176991
0.00797185
0.00236206
0.00771896
0.00585933
0.0069934
0.00793781
0.00592646
0.0084809
0.00425062
0.00756876
0.00613131
0.00350127
0.0106724
-0.0150316
-0.00984413
0.0121329
-0.0180202
0.0128613
-0.020754
0.0130169
-0.0217381
0.0128896
-0.0212451
0.0126729
-0.0194744
0.0122561
-0.0164839
0.0123371
-0.01245
0.0128886
-0.00765559
0.0128633
-0.00233586
0.0127378
0.00302134
0.0123099
0.00748853
0.0113497
0.0103325
0.00991108
0.0112552
0.00770169
0.0103472
0.00870849
0.0066069
0.0150435
-0.0197591
-0.0143703
0.0168129
-0.022796
0.0177657
-0.025708
0.0179553
-0.0267096
0.0178211
-0.0259541
0.0174169
-0.023582
0.0170837
-0.0197259
0.0172804
-0.0148389
0.01768
-0.00909397
0.0175906
-0.00272553
0.0171006
0.0034876
0.0165178
0.00865127
0.0155614
0.0120505
0.0139692
0.01327
0.0116215
0.0125262
0.010949
0.0104206
0.0197443
-0.0243623
-0.0193885
0.0216017
-0.0271625
0.0226425
-0.0298896
0.0228195
-0.0306762
0.0226428
-0.0295804
0.0220381
-0.0266795
0.0217112
-0.0221265
0.0219669
-0.0164853
0.0222913
-0.00998311
0.0221465
-0.002942
0.021431
0.00386751
0.0207795
0.00957299
0.0197972
0.0132909
0.0182248
0.0146916
0.0160238
0.014183
0.0128231
0.0149772
0.0249821
-0.0286019
-0.0249378
0.026711
-0.0311235
0.0275555
-0.0332579
0.0275742
-0.0334368
0.0272153
-0.0317879
0.0266117
-0.0284313
0.0263434
-0.0235494
0.0264379
-0.0174331
0.0266436
-0.0104055
0.0264812
-0.00299452
0.0258243
0.00416092
0.0251958
0.0101492
0.0242238
0.0140494
0.0228776
0.0156803
0.0209577
0.0154393
0.0142999
0.0202566
0.0306871
-0.0320218
-0.0309294
0.0321555
-0.0341408
0.0326094
-0.0356713
0.0322716
-0.0351904
0.0316727
-0.0329489
0.0311544
-0.0292359
0.0308802
-0.0240976
0.0307286
-0.0176975
0.0306627
-0.0104282
0.0304949
-0.00282759
0.0300845
0.0044191
0.0295698
0.0103964
0.0288603
0.0143204
0.0279575
0.0161251
0.0263493
0.016091
0.0151284
0.0260429
0.0367584
-0.0345846
-0.0374025
0.0378492
-0.03611
0.0379176
-0.0369072
0.0372021
-0.0358876
0.0363732
-0.0332302
0.035756
-0.02921
0.0352712
-0.0238695
0.0348963
-0.0173548
0.0345756
-0.0100543
0.0343764
-0.0024584
0.0341806
0.00465504
0.0338628
0.0103288
0.0335547
0.0140253
0.0331425
0.0158192
0.0319588
0.0159757
0.0153319
0.0321732
0.0433854
-0.0361591
-0.0445462
0.0438735
-0.0369402
0.0435028
-0.036827
0.0424801
-0.0352712
0.0413513
-0.0323577
0.0403858
-0.0282208
0.0395796
-0.0228474
0.039014
-0.0163917
0.0386025
-0.0092468
0.0383633
-0.00191933
0.0382265
0.00478627
0.0381898
0.00998486
0.0383027
0.0133343
0.0383061
0.0150323
0.037764
0.0154353
0.0152408
0.0387704
0.0508022
-0.0364067
-0.052584
0.050401
-0.0365253
0.0493611
-0.0355044
0.0478948
-0.0333711
0.0463596
-0.0303044
0.0449768
-0.0262695
0.0438598
-0.0210838
0.043123
-0.0148836
0.0426744
-0.00813285
0.0424045
-0.00134772
0.0423863
0.00474381
0.0427434
0.00942089
0.0433752
0.0124768
0.0438962
0.0142191
0.0441461
0.01498
0.0151847
0.0462338
0.0587659
-0.0349733
-0.0613345
0.0572813
-0.0346566
0.0553375
-0.0329787
0.0532137
-0.0303874
0.0512435
-0.0272258
0.0495221
-0.0233643
0.0481332
-0.018551
0.0472259
-0.0128874
0.0467015
-0.00681346
0.046493
-0.000801678
0.0468074
0.00456514
0.0477113
0.00870939
0.0490505
0.0115748
0.0503747
0.0134338
0.0515534
0.0144727
0.0149571
0.0547404
0.06669
-0.0314936
-0.0701995
0.0641311
-0.0309224
0.0612475
-0.0288707
0.0584789
-0.026117
0.0560862
-0.0230354
0.0540331
-0.0195005
0.0523808
-0.0152618
0.051321
-0.0103863
0.0507822
-0.00524109
0.0508381
-0.000195151
0.051648
0.00432826
0.0532784
0.00793199
0.0554749
0.0105595
0.0578261
0.0124077
0.0601278
0.0135538
0.01419
0.0641869
0.0746461
-0.0259363
-0.0792406
0.070901
-0.0251366
0.0671272
-0.0229544
0.0636941
-0.0203257
0.0608186
-0.0175426
0.0584403
-0.0146154
0.0565469
-0.0112183
0.0554137
-0.00731269
0.0550622
-0.00328804
0.0555566
0.000617087
0.0570455
0.00414543
0.0594847
0.00703607
0.0625946
0.00925993
0.0660836
0.0109107
0.0697237
0.0120285
0.0127033
0.074697
0.0829372
-0.0180543
-0.0886758
0.0778412
-0.0172283
0.0730303
-0.0152691
0.0687233
-0.013102
0.0651928
-0.0109069
0.0624326
-0.0087155
0.0604021
-0.00632849
0.0593557
-0.00369599
0.0593756
-0.00101769
0.0604753
0.00155896
0.0627426
0.00390087
0.0660266
0.00589031
0.0701205
0.00750022
0.0748015
0.00875481
0.0798744
0.00965607
0.01027
0.0859575
0.0907014
-0.00774805
-0.0975274
0.0841002
-0.00706238
0.0780836
-0.00592403
0.0728706
-0.0047549
0.068637
-0.00358561
0.0654981
-0.00240612
0.0634819
-0.00121556
0.0626683
-6.81668e-06
0.0631199
0.00120351
0.0648401
0.00237606
0.067804
0.00346734
0.0719055
0.00443598
0.0769797
0.00526633
0.0828476
0.00595319
0.0892946
0.00648234
0.00689652
0.096441
0.0884294
-0.0965663
0.080857
0.0742972
0.0688938
0.0647266
0.0618874
0.060396
0.0602276
0.0613597
0.0637303
0.0672448
0.0717729
0.0771533
0.083199
0.0896765
0.0963866
0.0013155
-0.0031109
0.0016625
-0.00463247
0.00184364
-0.00590617
0.00209276
-0.00674565
0.00235446
-0.00733144
0.00242826
-0.00713488
0.00227034
-0.00594154
0.00235154
-0.0043338
0.00264017
-0.00276707
0.00261341
-0.00105066
0.00265979
0.000912834
0.00261079
0.0025433
0.00236489
0.00332007
0.00192025
0.00313541
0.00118578
0.00206351
0.00101457
0.000893897
0.00410418
-0.00679783
0.00513149
-0.00932159
0.00567498
-0.0115878
0.00635069
-0.012933
0.00704943
-0.0136629
0.00736039
-0.0131609
0.00710483
-0.0111259
0.00725505
-0.00820512
0.00782973
-0.00512401
0.00773588
-0.00186178
0.00780131
0.00157707
0.0076274
0.00431675
0.00692552
0.00560773
0.00578498
0.00538743
0.00391551
0.00386278
0.00215519
0.00306192
0.00732698
-0.0110307
0.00887561
-0.0140888
0.00981965
-0.0170026
0.0107656
-0.0186647
0.0117121
-0.0192205
0.0122269
-0.0181668
0.0121651
-0.0153036
0.0123419
-0.0113545
0.0128235
-0.00701249
0.012678
-0.00247658
0.0125316
0.00190778
0.0121728
0.00528804
0.0112377
0.00701859
0.00971463
0.00695542
0.00727827
0.00536574
0.00337916
0.00599815
0.0110681
-0.0155356
0.0129556
-0.0187848
0.0142588
-0.0219975
0.0153467
-0.0236671
0.0163957
-0.0238638
0.0168654
-0.0221313
0.0169703
-0.0183842
0.0172912
-0.0135908
0.0176409
-0.00835757
0.0174464
-0.00292132
0.0169164
0.00208713
0.0163737
0.00589052
0.0154438
0.00794457
0.0137869
0.0080622
0.0112103
0.00663793
0.00464691
0.0097468
0.0154474
-0.0202279
0.0174537
-0.0234105
0.0189439
-0.0264645
0.0200772
-0.0279033
0.0210973
-0.0276418
0.021415
-0.0252644
0.0215707
-0.0207814
0.0219806
-0.0152224
0.02229
-0.00924108
0.0220728
-0.00321386
0.0213147
0.00223145
0.0206883
0.00639105
0.0197486
0.00862978
0.0181529
0.00890671
0.0157119
0.00776851
0.00594597
0.0143137
0.0205591
-0.0247506
0.02248
-0.0277838
0.0238506
-0.0303545
0.0248508
-0.0311426
0.0256457
-0.0301765
0.0259407
-0.0272036
0.0261644
-0.0223306
0.0264417
-0.0162661
0.0266763
-0.00973912
0.0264885
-0.00336177
0.0258192
0.00235096
0.0252378
0.00670681
0.0243632
0.00911233
0.0230104
0.00966383
0.0207723
0.00882346
0.00720241
0.0196615
0.0262016
-0.0285241
0.0279625
-0.0313679
0.0290182
-0.03342
0.0296683
-0.033525
0.0301423
-0.0318411
0.0304516
-0.0283432
0.0306526
-0.0231071
0.0307056
-0.0167139
0.0307173
-0.00989809
0.03059
-0.00329851
0.0302358
0.00250541
0.0298487
0.0068714
0.029283
0.00936931
0.0282888
0.0101546
0.0262802
0.00957206
0.00819124
0.0256131
0.0320906
-0.0312328
0.0336532
-0.0337243
0.0344822
-0.0353473
0.0347665
-0.0349928
0.0349135
-0.0327529
0.0350316
-0.0287547
0.0349847
-0.02319
0.0348308
-0.0166107
0.0346434
-0.00969708
0.0345695
-0.00303158
0.0345463
0.00271835
0.0344411
0.00688886
0.0342275
0.00928343
0.0336142
0.0101746
0.032044
0.00985848
0.00887553
0.0320515
0.038329
-0.0328437
0.0395757
-0.0349255
0.04016
-0.0359551
0.0401773
-0.035141
0.0399474
-0.032547
0.0396338
-0.0282561
0.0392257
-0.0225047
0.0388981
-0.0158944
0.0386794
-0.00905673
0.038671
-0.00255553
0.0388245
0.00290355
0.0389975
0.00676907
0.0391264
0.00903228
0.0388977
0.009965
0.038051
0.00993329
0.00947017
0.0390541
0.0453642
-0.0333771
0.0459762
-0.0349222
0.0460443
-0.0351643
0.0456396
-0.0338079
0.044964
-0.0309899
0.0441711
-0.0267044
0.0434307
-0.0210645
0.0429529
-0.0146219
0.0427611
-0.00807838
0.0428236
-0.00200913
0.0431237
0.00301673
0.0436478
0.00661466
0.044253
0.00882547
0.0446212
0.0099427
0.0447453
0.0103214
0.0103461
0.0469342
0.0532644
-0.0322764
0.0529219
-0.0332832
0.0521153
-0.0327849
0.0510233
-0.0309452
0.0498439
-0.0280163
0.0486507
-0.0239435
0.0476187
-0.0187275
0.0469924
-0.0128005
0.0467822
-0.00685581
0.0469469
-0.00140879
0.0475514
0.00313925
0.0485757
0.00650337
0.0498938
0.00877289
0.051259
0.0101794
0.0525584
0.0109554
0.0113149
0.055865
0.0617606
-0.0292762
0.0602616
-0.0295997
0.0584013
-0.0284969
0.0565019
-0.0263765
0.0547548
-0.0235412
0.0531428
-0.0199324
0.0517982
-0.0154357
0.0510162
-0.010371
0.0508101
-0.00530738
0.0512201
-0.000649823
0.0522846
0.00331882
0.0539937
0.00642957
0.0562434
0.00870378
0.0587745
0.0102663
0.0613457
0.0112321
0.011738
0.0655802
0.0709147
-0.024395
0.068008
-0.024051
0.0649692
-0.0224416
0.0621154
-0.0202185
0.0596919
-0.0176551
0.0576247
-0.0147597
0.0559596
-0.0112661
0.0550616
-0.00727606
0.0550023
-0.00330913
0.0557974
0.000358903
0.0574888
0.00357245
0.0600168
0.00619835
0.063242
0.00823344
0.0669181
0.00973406
0.070809
0.0107255
0.011286
0.0759684
0.0807406
-0.0173106
0.0761442
-0.0166502
0.0716981
-0.0148868
0.067695
-0.0128909
0.064403
-0.0108177
0.0618133
-0.00867301
0.059922
-0.00627844
0.0590341
-0.00363098
0.0592575
-0.000991954
0.0605671
0.00147045
0.0629787
0.00366809
0.0663586
0.00553705
0.0705599
0.00706257
0.0753816
0.00825307
0.0806092
0.00909513
0.00964513
0.0868181
0.0898526
-0.00760143
0.0834202
-0.00692131
0.0775229
-0.00580829
0.0724096
-0.00467398
0.0682519
-0.00353238
0.0651773
-0.00236886
0.0632203
-0.00118259
0.0624778
2.49803e-05
0.0630261
0.00122273
0.0648457
0.00236512
0.0678844
0.00341847
0.0720405
0.00435475
0.077172
0.00516184
0.0831067
0.00583107
0.0896201
0.00634336
0.00674019
0.0968212
0.0882903
0.0807418
0.0741985
0.0688053
0.0646476
0.061818
0.0603364
0.0601815
0.0613331
0.0637244
0.0672548
0.0717945
0.0771862
0.0832437
0.0897319
0.0964504
0.00125279
-0.00440791
0.00165783
-0.00614232
0.00179225
-0.00747916
0.0019777
-0.00819792
0.00224302
-0.00860057
0.00237429
-0.00817438
0.00226104
-0.00670456
0.00236464
-0.00481808
0.00269445
-0.00294248
0.00271968
-0.000904733
0.0027698
0.00134432
0.00268784
0.00322433
0.00242866
0.00423478
0.00199288
0.00427563
0.00127542
0.00336102
0.00220907
0.000950534
0.00389382
-0.00927239
0.00507238
-0.0121024
0.00554702
-0.0145021
0.00610666
-0.0157295
0.0067996
-0.016113
0.00721768
-0.0150667
0.00706977
-0.0124639
0.00729049
-0.00903829
0.00797386
-0.0054147
0.0080051
-0.00158309
0.00809092
0.0023877
0.00785018
0.00561495
0.0071116
0.00735664
0.00598225
0.00752959
0.00413698
0.00621575
0.00437567
0.00321958
0.0069464
-0.0145535
0.00870747
-0.017972
0.00966442
-0.0210505
0.0105449
-0.0226189
0.0114527
-0.022673
0.0120384
-0.0207554
0.0121038
-0.0170435
0.0123935
-0.0124065
0.013016
-0.00736879
0.0130209
-0.00208405
0.0129253
0.00303636
0.0125141
0.00711902
0.0115306
0.00948875
0.00999233
0.00990899
0.0075545
0.00850407
0.00639104
0.00623243
0.0105752
-0.0199582
0.0127206
-0.0235912
0.0141446
-0.02696
0.0152352
-0.028494
0.016208
-0.0280045
0.0166861
-0.0251506
0.0169023
-0.0203519
0.0173535
-0.0147435
0.0178468
-0.00872423
0.0178
-0.00242509
0.0173475
0.00347931
0.0167834
0.00816366
0.0157925
0.010987
0.0140723
0.0116154
0.0114694
0.010332
0.00825455
0.0100125
0.0149234
-0.0253194
0.0172354
-0.0289172
0.0189402
-0.032092
0.0201218
-0.0333027
0.0210337
-0.0321783
0.0212955
-0.0284939
0.0215225
-0.0228211
0.0220531
-0.0163739
0.0224877
-0.0095773
0.0223976
-0.00263212
0.0217261
0.00381717
0.0210937
0.00897917
0.0200667
0.0120572
0.0183489
0.0128249
0.015888
0.0117769
0.00992721
0.0145745
0.0201052
-0.0302731
0.0223689
-0.0337399
0.0240135
-0.0363557
0.0250741
-0.0367693
0.0257356
-0.034785
0.0259224
-0.0304156
0.0261665
-0.0243043
0.0265308
-0.017335
0.0268572
-0.0100016
0.0267612
-0.00270307
0.026155
0.0040602
0.0255455
0.00947094
0.0245216
0.0127074
0.0230226
0.0137011
0.0208512
0.0129513
0.0113604
0.0198836
0.0259623
-0.0342887
0.028072
-0.0375358
0.0293888
-0.0394842
0.0300794
-0.0390391
0.0304011
-0.0362471
0.0305632
-0.0313688
0.0307293
-0.0249357
0.0308218
-0.0176635
0.0308808
-0.0100799
0.0307895
-0.00259131
0.0304363
0.00425977
0.0299412
0.00965948
0.0291754
0.0129279
0.0281195
0.0141251
0.0262765
0.013639
0.0122853
0.0257125
0.0322304
-0.0370634
0.0340955
-0.0398498
0.035107
-0.0411738
0.0353695
-0.0401072
0.0353399
-0.0367382
0.0352813
-0.0314664
0.0351513
-0.0248177
0.0349841
-0.0174318
0.0347859
-0.00980546
0.0346712
-0.00230263
0.0345388
0.00443705
0.034241
0.00955923
0.0338742
0.0126434
0.0333139
0.0138954
0.0319189
0.013676
0.0127155
0.0318923
0.0389231
-0.0384651
0.0403804
-0.0406846
0.0410386
-0.0412415
0.0409553
-0.0396123
0.040523
-0.0359584
0.040013
-0.0305758
0.0394835
-0.0239126
0.0390898
-0.0166004
0.0387946
-0.00912046
0.0386444
-0.00185694
0.0385748
0.00451525
0.0385564
0.00922185
0.0386095
0.0120433
0.0384765
0.0132943
0.0377549
0.0134072
0.0129736
0.038546
0.0463346
-0.0384183
0.0470606
-0.0399455
0.0471011
-0.0396491
0.0465448
-0.0375074
0.04565
-0.0337793
0.0446504
-0.0286132
0.0437631
-0.0222445
0.0431758
-0.0152292
0.0428381
-0.00813858
0.0426586
-0.00138063
0.0427056
0.00444312
0.0430758
0.0087256
0.0436504
0.0113706
0.0440546
0.0127787
0.0441649
0.0133331
0.0133664
0.0460697
0.0544864
-0.0364687
0.0541505
-0.0373389
0.053252
-0.0363357
0.0519812
-0.0338258
0.0505833
-0.0301687
0.0491892
-0.0254245
0.0480041
-0.0196651
0.047238
-0.0133063
0.0468246
-0.00691813
0.0467048
-0.000898445
0.047077
0.00428325
0.0479885
0.00815011
0.0492777
0.0107351
0.0505114
0.012372
0.0515926
0.0132724
0.0136406
0.0546359
0.0630833
-0.0323599
0.0615003
-0.0325444
0.0595095
-0.0310396
0.0574311
-0.0284208
0.055485
-0.025069
0.0536956
-0.0209911
0.0522109
-0.0161195
0.0512844
-0.0107566
0.0508554
-0.00537278
0.0509941
-0.000300884
0.0518523
0.00411546
0.0534873
0.00755508
0.0556461
0.0100191
0.0579359
0.0117365
0.0601789
0.0127974
0.0133638
0.0641385
0.0721061
-0.026242
0.0690924
-0.025832
0.0659258
-0.0239932
0.0629246
-0.0214842
0.060342
-0.0186162
0.0581355
-0.0154338
0.0563651
-0.0117098
0.0553451
-0.0075413
0.05509
-0.00337964
0.0556542
0.000547449
0.0571807
0.00402575
0.059624
0.00683716
0.0627114
0.00898116
0.0661657
0.0105669
0.0697791
0.011641
0.0122812
0.0746953
0.0815654
-0.0181312
0.0768975
-0.0174561
0.0723712
-0.0156109
0.0682766
-0.0135003
0.0648852
-0.0112942
0.06221
-0.00901621
0.0602582
-0.00651268
0.0592909
-0.00378263
0.059379
-0.00105212
0.0605266
0.00153334
0.0628186
0.00385689
0.0661064
0.00581672
0.0701898
0.00739695
0.074856
0.00862719
0.0799223
0.00951149
0.0101134
0.0859818
0.0902159
-0.0077914
0.0837596
-0.00711147
0.0778355
-0.00598487
0.0726898
-0.00482711
0.0684948
-0.00365549
0.0653891
-0.00246038
0.06341
-0.00124815
0.0626351
-2.11221e-05
0.06312
0.0011988
0.0648627
0.00237251
0.0678378
0.00345954
0.071941
0.00442184
0.0770112
0.00524603
0.0828742
0.00592803
0.0893215
0.00645356
0.00686547
0.0964624
0.0883524
0.080803
0.0742584
0.068862
0.0646996
0.0618661
0.060382
0.0602219
0.0613611
0.0637364
0.0672531
0.0717814
0.0771608
0.0832053
0.0896831
0.0963929
0.0012269
-0.00366399
0.00160135
-0.00527773
0.00177911
-0.00654615
0.00202238
-0.0073078
0.00228633
-0.00776151
0.00237926
-0.00735482
0.00226258
-0.00583273
0.00246162
-0.00364026
0.00304868
-0.00115076
0.00335237
0.0013802
0.00332924
0.00342495
0.00308886
0.00467806
0.00282693
0.00530579
0.00241012
0.00533024
0.00189305
0.00489239
0.00470139
0.00386829
-0.0078595
0.00495615
-0.0105185
0.00549117
-0.0127663
0.00615016
-0.0139577
0.00685606
-0.0144204
0.00722203
-0.0135142
0.00708908
-0.0108573
0.00757242
-0.00687271
0.00892079
-0.00222696
0.00967163
0.00233362
0.00961482
0.00592855
0.00903074
0.00820041
0.00832134
0.0093825
0.00722674
0.00955812
0.00586873
0.00899373
0.00861942
0.00698731
-0.0125297
0.00859714
-0.015741
0.00952995
-0.0186038
0.010453
-0.0200407
0.0114157
-0.0202048
0.0120213
-0.018572
0.0121592
-0.0148371
0.0128301
-0.00945244
0.0143584
-0.00315034
0.0153243
0.00291433
0.0151913
0.00758066
0.0144633
0.0106153
0.0135117
0.0122967
0.0120367
0.012719
0.0102141
0.0122434
0.0118006
0.0106657
-0.0173803
0.0125942
-0.0207746
0.0138804
-0.023893
0.0149447
-0.0252656
0.0160243
-0.0249591
0.0166214
-0.0225042
0.016994
-0.0176842
0.0179136
-0.01119
0.0194201
-0.00377062
0.0204599
0.00330924
0.0203039
0.00877613
0.0195911
0.0124413
0.0185178
0.0144727
0.0168944
0.0150725
0.0149077
0.0147575
0.0142934
0.0150154
-0.0223037
0.0170321
-0.0256067
0.0184976
-0.0285129
0.0196117
-0.0295922
0.0206823
-0.0287448
0.0211631
-0.0255399
0.0216422
-0.0198323
0.0227116
-0.0123912
0.0241976
-0.00414716
0.025268
0.00352003
0.0252558
0.00950689
0.0247027
0.0136457
0.0235337
0.0159405
0.021952
0.0167581
0.0199942
0.0166664
0.0162224
0.0201222
-0.0269331
0.0220209
-0.0300422
0.0233597
-0.0324145
0.0243501
-0.0327963
0.0252184
-0.0311927
0.0257099
-0.0273258
0.0262991
-0.0211228
0.0272666
-0.0131019
0.0286605
-0.00436344
0.0297702
0.00355737
0.0300211
0.00980003
0.0297395
0.0142294
0.028753
0.0168398
0.0274101
0.0179955
0.0254876
0.0180458
0.0175598
0.0257764
-0.0306884
0.0274847
-0.0335552
0.0285054
-0.0353626
0.0291604
-0.0350328
0.0297318
-0.0326955
0.0302662
-0.0282732
0.0308599
-0.0216625
0.0316141
-0.0133395
0.0327523
-0.00449231
0.0339168
0.00346011
0.0345788
0.009778
0.0346887
0.0143369
0.0341798
0.017176
0.0331353
0.0185598
0.0312552
0.0186843
0.0182424
0.0316892
-0.0332659
0.0331729
-0.0357226
0.0339676
-0.0370661
0.0342754
-0.0362713
0.0345437
-0.0333903
0.0349082
-0.0284731
0.0352695
-0.0215538
0.0358154
-0.0131979
0.0367128
-0.00454705
0.0379274
0.00323858
0.0390222
0.00948321
0.0395783
0.0140088
0.0394814
0.0168846
0.0387435
0.0183366
0.0372365
0.0185772
0.0183287
0.0379628
-0.0346412
0.0391066
-0.0366375
0.0396585
-0.0373712
0.0397199
-0.0361295
0.0396345
-0.0329296
0.03958
-0.0277677
0.0395852
-0.0207764
0.0399375
-0.0126351
0.0407654
-0.00440227
0.0420522
0.00295418
0.0434072
0.00889664
0.044312
0.0132613
0.0445834
0.016109
0.0442795
0.0175949
0.0435045
0.0179744
0.0180318
0.0450436
-0.0348513
0.0455331
-0.0362771
0.0455701
-0.0362272
0.0452276
-0.0344768
0.0447133
-0.0311162
0.0441822
-0.0260617
0.0438435
-0.0193658
0.0440174
-0.0117208
0.0448384
-0.00418684
0.0461896
0.00247264
0.0476757
0.00794034
0.0488993
0.0121368
0.0497169
0.0149991
0.0501395
0.0165874
0.0503827
0.0172575
0.0176776
0.0530025
-0.0333709
0.0525275
-0.0342484
0.0516892
-0.0334873
0.0506675
-0.0313063
0.0496507
-0.0279234
0.0487082
-0.023226
0.0480514
-0.0172072
0.0480308
-0.010436
0.0487917
-0.00386783
0.050152
0.00193032
0.051792
0.00685758
0.0534278
0.0107868
0.0550007
0.0136031
0.0565623
0.0153355
0.0580371
0.0162171
0.0167691
0.061572
-0.0299856
0.0599455
-0.0301934
0.0580516
-0.0288776
0.0562143
-0.0264885
0.0546124
-0.0233089
0.053221
-0.0192501
0.0522017
-0.014205
0.0519745
-0.0086141
0.0526459
-0.0032328
0.0540363
0.00159127
0.0558881
0.00584607
0.0580366
0.0094019
0.0605671
0.012017
0.0634023
0.0136357
0.0660764
0.0144756
0.0149818
0.0708061
-0.0247724
0.0677941
-0.0243441
0.064721
-0.0225908
0.0619094
-0.0201881
0.0595954
-0.0174018
0.0576972
-0.0142284
0.0562935
-0.0104128
0.0558767
-0.00616749
0.0564882
-0.00207777
0.0579796
0.00167641
0.0601541
0.00508196
0.0629765
0.00798797
0.0664946
0.0101441
0.0704452
0.0114909
0.0743056
0.0122566
0.0127335
0.0806999
-0.0174562
0.0760336
-0.0167532
0.0715591
-0.0149194
0.0675769
-0.012835
0.0643502
-0.0106554
0.0618648
-0.00837933
0.0601621
-0.00585188
0.0595969
-0.00310735
0.0602431
-0.000432529
0.061941
0.00205533
0.0645915
0.00436081
0.06817
0.00634356
0.072593
0.00786476
0.0775778
0.00892152
0.0826897
0.00960793
0.0100557
0.0898467
-0.00763074
0.0833832
-0.00694019
0.0774716
-0.00580995
0.0723654
-0.00465403
0.0682358
-0.00348641
0.0652083
-0.00229208
0.063345
-0.00107416
0.0627489
0.00015179
0.0634866
0.00135063
0.0654492
0.00249803
0.068586
0.00357648
0.0728332
0.00453708
0.0780723
0.00533098
0.0840688
0.00595699
0.0904784
0.00642869
0.00681178
0.0882916
0.0807372
0.0741907
0.0687984
0.064646
0.0618263
0.0603638
0.0602416
0.0614297
0.0638493
0.0674001
0.0719604
0.0773736
0.0834393
0.0898962
)
;

boundaryField
{
    walls
    {
        type            calculated;
        value           uniform 0;
    }
    cylinder
    {
        type            calculated;
        value           nonuniform List<scalar> 
64
(
1.61854e-11
-3.19704e-11
-2.06466e-11
2.84983e-11
-1.0121e-11
5.56231e-12
1.67673e-11
-1.36581e-11
1.36561e-11
-1.6769e-11
-5.56385e-12
1.0119e-11
-2.85002e-11
2.06452e-11
3.19705e-11
-1.61861e-11
1.61854e-11
-3.19704e-11
-2.06466e-11
2.84983e-11
-1.0121e-11
5.56231e-12
1.67673e-11
-1.36581e-11
1.36561e-11
-1.6769e-11
-5.56385e-12
1.0119e-11
-2.85002e-11
2.06452e-11
3.19705e-11
-1.61861e-11
1.61854e-11
-3.19704e-11
-2.06466e-11
2.84983e-11
-1.0121e-11
5.56231e-12
1.67673e-11
-1.36581e-11
1.36561e-11
-1.6769e-11
-5.56385e-12
1.0119e-11
-2.85002e-11
2.06452e-11
3.19705e-11
-1.61861e-11
1.61854e-11
-3.19704e-11
-2.06466e-11
2.84983e-11
-1.0121e-11
5.56231e-12
1.67673e-11
-1.36581e-11
1.36561e-11
-1.6769e-11
-5.56385e-12
1.0119e-11
-2.85002e-11
2.06452e-11
3.19705e-11
-1.61861e-11
)
;
    }
    outlet
    {
        type            calculated;
        value           uniform 0;
    }
    inlet
    {
        type            calculated;
        value           uniform 0;
    }
    frontAndBack
    {
        type            empty;
    }
}


// ************************************************************************* //
