/*--------------------------------*- C++ -*----------------------------------*\
| =========                 |                                                 |
| \\      /  F ield         | OpenFOAM: The Open Source CFD Toolbox           |
|  \\    /   O peration     | Version:  2412                                  |
|   \\  /    A nd           | Website:  www.openfoam.com                      |
|    \\/     M anipulation  |                                                 |
\*---------------------------------------------------------------------------*/
FoamFile
{
    version     2.0;
    format      ascii;
    arch        "LSB;label=32;scalar=64";
    class       pointVectorField;
    location    "0.6";
    object      pointDisplacement;
}
// * * * * * * * * * * * * * * * * * * * * * * * * * * * * * * * * * * * * * //

dimensions      [0 1 0 0 0 0 0];

internalField   nonuniform List<vector> 
2176
(
(0 0 0)
(0 0 0)
(0 0 0)
(0 0 0)
(0 0 0)
(0 0 0)
(0 0 0)
(0 0 0)
(0 0 0)
(0 0 0)
(0 0 0)
(0 0 0)
(0 0 0)
(0 0 0)
(0 0 0)
(0 0 0)
(0 0 0)
(0.00543589 -0.0069712 0)
(0.00736872 -0.00907436 0)
(0.011158 -0.0124067 0)
(0.0152049 -0.0145423 0)
(0.019574 -0.0153781 0)
(0.0241377 -0.0147783 0)
(0.0285615 -0.0126629 0)
(0.0323239 -0.00910611 0)
(0.0348489 -0.00443864 0)
(0.0355624 0.000731034 0)
(0.0341662 0.00558886 0)
(0.0308942 0.00932857 0)
(0.0262769 0.0113971 0)
(0.0209319 0.0116183 0)
(0.0153397 0.0101167 0)
(0.00978319 0.00723125 0)
(0.00688433 0.00533723 0)
(0.0136386 -0.0174771 0)
(0.0173744 -0.0209269 0)
(0.0246817 -0.0265233 0)
(0.0324947 -0.0298068 0)
(0.0408461 -0.0306126 0)
(0.0494274 -0.0287329 0)
(0.0575792 -0.024089 0)
(0.0643577 -0.0169034 0)
(0.0687252 -0.00784078 0)
(0.0697711 0.00197294 0)
(0.0671343 0.0111237 0)
(0.0612298 0.0182688 0)
(0.0529425 0.0224917 0)
(0.0432744 0.0234594 0)
(0.0330543 0.021325 0)
(0.0227776 0.016572 0)
(0.0173065 0.0134335 0)
(0.0242444 -0.030936 0)
(0.0297181 -0.0350096 0)
(0.0402273 -0.0418048 0)
(0.0514583 -0.0453061 0)
(0.0633396 -0.045316 0)
(0.0753436 -0.0415999 0)
(0.0865006 -0.0341346 0)
(0.0955557 -0.0233428 0)
(0.101144 -0.0102111 0)
(0.102204 0.00372678 0)
(0.0984569 0.0166404 0)
(0.0904655 0.0268599 0)
(0.0793526 0.0332555 0)
(0.0663443 0.0353719 0)
(0.0524819 0.0333387 0)
(0.0384099 0.0276722 0)
(0.0306914 0.0239313 0)
(0.0370705 -0.0469326 0)
(0.0442744 -0.0509606 0)
(0.0576792 -0.0579503 0)
(0.0719714 -0.0608173 0)
(0.0869153 -0.0593515 0)
(0.101753 -0.0533287 0)
(0.115251 -0.0428302 0)
(0.125911 -0.028492 0)
(0.1322 -0.011593 0)
(0.133057 0.00602538 0)
(0.128315 0.0222758 0)
(0.118685 0.035311 0)
(0.105438 0.0438856 0)
(0.089907 0.0474565 0)
(0.073273 0.0461189 0)
(0.0562698 0.0403702 0)
(0.0466329 0.0366545 0)
(0.0519684 -0.0650284 0)
(0.0609233 -0.06839 0)
(0.0769333 -0.0746508 0)
(0.0939162 -0.0761101 0)
(0.111446 -0.0725719 0)
(0.128542 -0.0638547 0)
(0.143769 -0.0501774 0)
(0.155445 -0.0323808 0)
(0.161999 -0.0119908 0)
(0.162488 0.00893575 0)
(0.156873 0.028182 0)
(0.145982 0.0438316 0)
(0.131149 0.0545816 0)
(0.113763 0.0598408 0)
(0.0950986 0.0596799 0)
(0.0759345 0.0545565 0)
(0.0646877 0.0514522 0)
(0.0688262 -0.084756 0)
(0.0795722 -0.0868968 0)
(0.0978988 -0.0915873 0)
(0.11719 -0.0909396 0)
(0.136825 -0.0848112 0)
(0.155623 -0.073086 0)
(0.171998 -0.0561365 0)
(0.184173 -0.0349948 0)
(0.190646 -0.0113722 0)
(0.190641 0.0125495 0)
(0.184264 0.0345213 0)
(0.172404 0.0526196 0)
(0.15641 0.0655331 0)
(0.137728 0.0726754 0)
(0.117655 0.0740846 0)
(0.096988 0.0701823 0)
(0.0843976 0.0682168 0)
(0.087581 -0.105639 0)
(0.100146 -0.106041 0)
(0.120515 -0.108414 0)
(0.141734 -0.105055 0)
(0.162991 -0.0958899 0)
(0.182946 -0.080908 0)
(0.199904 -0.0606348 0)
(0.212114 -0.0362713 0)
(0.218226 -0.00965729 0)
(0.217633 0.0169963 0)
(0.21057 0.0414649 0)
(0.197953 0.0618665 0)
(0.181143 0.0769393 0)
(0.161609 0.0861235 0)
(0.140628 0.0894241 0)
(0.119004 0.0872453 0)
(0.105277 0.0868827 0)
(0.108235 -0.127183 0)
(0.122629 -0.125365 0)
(0.144753 -0.124751 0)
(0.167511 -0.118153 0)
(0.189893 -0.105577 0)
(0.210447 -0.087143 0)
(0.227468 -0.0635392 0)
(0.239316 -0.0360994 0)
(0.244832 -0.00671396 0)
(0.243572 0.0224358 0)
(0.235848 0.0491976 0)
(0.222622 0.0717834 0)
(0.205264 0.0890178 0)
(0.185212 0.100375 0)
(0.16371 0.105839 0)
(0.141554 0.105813 0)
(0.126829 0.107453 0)
(0.130858 -0.148862 0)
(0.147056 -0.144361 0)
(0.170619 -0.14014 0)
(0.194483 -0.129832 0)
(0.217473 -0.113541 0)
(0.238085 -0.0915356 0)
(0.254685 -0.0646493 0)
(0.265817 -0.0342955 0)
(0.270522 -0.0023572 0)
(0.268486 0.0290606 0)
(0.260104 0.0579295 0)
(0.246382 0.0826052 0)
(0.228673 0.102019 0)
(0.20835 0.115678 0)
(0.186597 0.123549 0)
(0.164202 0.126043 0)
(0.148525 0.130016 0)
(0.155616 -0.170075 0)
(0.173543 -0.162426 0)
(0.198174 -0.154034 0)
(0.222658 -0.139601 0)
(0.245704 -0.119362 0)
(0.265835 -0.0937363 0)
(0.281561 -0.0636668 0)
(0.291636 -0.0305913 0)
(0.295283 0.00365724 0)
(0.292336 0.0371058 0)
(0.283287 0.0679159 0)
(0.26916 0.0946169 0)
(0.251228 0.116243 0)
(0.230779 0.132336 0)
(0.20894 0.142851 0)
(0.186462 0.148184 0)
(0.169772 0.154753 0)
(0.182759 -0.190095 0)
(0.202272 -0.178808 0)
(0.227549 -0.165731 0)
(0.252111 -0.146828 0)
(0.274619 -0.122482 0)
(0.293695 -0.0932543 0)
(0.30805 -0.0601645 0)
(0.316669 -0.0246331 0)
(0.318992 0.0116375 0)
(0.315013 0.0468804 0)
(0.305299 0.0794877 0)
(0.290808 0.108162 0)
(0.272699 0.132045 0)
(0.252165 0.150714 0)
(0.230267 0.1641 0)
(0.207721 0.172568 0)
(0.189833 0.181952 0)
(0.21265 -0.207913 0)
(0.233545 -0.192477 0)
(0.258941 -0.174232 0)
(0.282917 -0.150582 0)
(0.304178 -0.122081 0)
(0.321523 -0.0894001 0)
(0.333935 -0.0535744 0)
(0.340691 -0.0159309 0)
(0.341454 0.0220327 0)
(0.336348 0.0588196 0)
(0.325924 0.0930637 0)
(0.311044 0.123655 0)
(0.292723 0.149849 0)
(0.272016 0.171244 0)
(0.249917 0.187727 0)
(0.227126 0.199626 0)
(0.207714 0.212015 0)
(0.245819 -0.222032 0)
(0.267725 -0.20184 0)
(0.292474 -0.178022 0)
(0.314958 -0.14952 0)
(0.334067 -0.117016 0)
(0.348907 -0.0812321 0)
(0.358786 -0.0431137 0)
(0.363273 -0.00381479 0)
(0.362235 0.0354251 0)
(0.355859 0.0734124 0)
(0.34463 0.109068 0)
(0.329269 0.141489 0)
(0.310612 0.170034 0)
(0.289536 0.194317 0)
(0.266918 0.214182 0)
(0.243421 0.229869 0)
(0.221897 0.245421 0)
(0.282564 -0.230032 0)
(0.304819 -0.204359 0)
(0.327707 -0.174819 0)
(0.347425 -0.141742 0)
(0.363282 -0.105787 0)
(0.374779 -0.0675994 0)
(0.38155 -0.027946 0)
(0.383394 0.0122942 0)
(0.380311 0.0522118 0)
(0.372495 0.0909476 0)
(0.360321 0.127711 0)
(0.344301 0.161819 0)
(0.325055 0.192738 0)
(0.303251 0.220087 0)
(0.279572 0.243663 0)
(0.254583 0.263544 0)
(0.229961 0.282386 0)
(0.320841 -0.227453 0)
(0.342083 -0.195913 0)
(0.361225 -0.161616 0)
(0.376745 -0.125174 0)
(0.388376 -0.087059 0)
(0.395926 -0.0477415 0)
(0.399262 -0.00774021 0)
(0.398324 0.0324001 0)
(0.393145 0.0721298 0)
(0.383845 0.110912 0)
(0.370619 0.148238 0)
(0.353737 0.183638 0)
(0.333526 0.216701 0)
(0.310366 0.247075 0)
(0.284663 0.274488 0)
(0.256792 0.298791 0)
(0.227437 0.320796 0)
(0.340602 -0.22331 0)
(0.36085 -0.188849 0)
(0.377623 -0.15257 0)
(0.39076 -0.114822 0)
(0.400132 -0.0759682 0)
(0.405652 -0.0363826 0)
(0.407265 0.00355346 0)
(0.404955 0.0434553 0)
(0.398746 0.0829386 0)
(0.388697 0.121623 0)
(0.374904 0.159136 0)
(0.3575 0.195117 0)
(0.336654 0.229219 0)
(0.312566 0.261113 0)
(0.285467 0.290492 0)
(0.255619 0.317074 0)
(0.22331 0.340602 0)
(0 0 0)
(0 0 0)
(0 0 0)
(0 0 0)
(0 0 0)
(0 0 0)
(0 0 0)
(0 0 0)
(0 0 0)
(0 0 0)
(0 0 0)
(0 0 0)
(0 0 0)
(0 0 0)
(0 0 0)
(0 0 0)
(0 0 0)
(0.00543589 -0.0069712 0)
(0.00736872 -0.00907436 0)
(0.011158 -0.0124067 0)
(0.0152049 -0.0145423 0)
(0.019574 -0.0153781 0)
(0.0241377 -0.0147783 0)
(0.0285615 -0.0126629 0)
(0.0323239 -0.00910611 0)
(0.0348489 -0.00443864 0)
(0.0355624 0.000731034 0)
(0.0341662 0.00558886 0)
(0.0308942 0.00932857 0)
(0.0262769 0.0113971 0)
(0.0209319 0.0116183 0)
(0.0153397 0.0101167 0)
(0.00978319 0.00723125 0)
(0.00688433 0.00533723 0)
(0.0136386 -0.0174771 0)
(0.0173744 -0.0209269 0)
(0.0246817 -0.0265233 0)
(0.0324947 -0.0298068 0)
(0.0408461 -0.0306126 0)
(0.0494274 -0.0287329 0)
(0.0575792 -0.024089 0)
(0.0643577 -0.0169034 0)
(0.0687252 -0.00784078 0)
(0.0697711 0.00197294 0)
(0.0671343 0.0111237 0)
(0.0612298 0.0182688 0)
(0.0529425 0.0224917 0)
(0.0432744 0.0234594 0)
(0.0330543 0.021325 0)
(0.0227776 0.016572 0)
(0.0173065 0.0134335 0)
(0.0242444 -0.030936 0)
(0.0297181 -0.0350096 0)
(0.0402273 -0.0418048 0)
(0.0514583 -0.0453061 0)
(0.0633396 -0.045316 0)
(0.0753436 -0.0415999 0)
(0.0865006 -0.0341346 0)
(0.0955557 -0.0233428 0)
(0.101144 -0.0102111 0)
(0.102204 0.00372678 0)
(0.0984569 0.0166404 0)
(0.0904655 0.0268599 0)
(0.0793526 0.0332555 0)
(0.0663443 0.0353719 0)
(0.0524819 0.0333387 0)
(0.0384099 0.0276722 0)
(0.0306914 0.0239313 0)
(0.0370705 -0.0469326 0)
(0.0442744 -0.0509606 0)
(0.0576792 -0.0579503 0)
(0.0719714 -0.0608173 0)
(0.0869153 -0.0593515 0)
(0.101753 -0.0533287 0)
(0.115251 -0.0428302 0)
(0.125911 -0.028492 0)
(0.1322 -0.011593 0)
(0.133057 0.00602538 0)
(0.128315 0.0222758 0)
(0.118685 0.035311 0)
(0.105438 0.0438856 0)
(0.089907 0.0474565 0)
(0.073273 0.0461189 0)
(0.0562698 0.0403702 0)
(0.0466329 0.0366545 0)
(0.0519684 -0.0650284 0)
(0.0609233 -0.06839 0)
(0.0769333 -0.0746508 0)
(0.0939162 -0.0761101 0)
(0.111446 -0.0725719 0)
(0.128542 -0.0638547 0)
(0.143769 -0.0501774 0)
(0.155445 -0.0323808 0)
(0.161999 -0.0119908 0)
(0.162488 0.00893575 0)
(0.156873 0.028182 0)
(0.145982 0.0438316 0)
(0.131149 0.0545816 0)
(0.113763 0.0598408 0)
(0.0950986 0.0596799 0)
(0.0759345 0.0545565 0)
(0.0646877 0.0514522 0)
(0.0688262 -0.084756 0)
(0.0795722 -0.0868968 0)
(0.0978988 -0.0915873 0)
(0.11719 -0.0909396 0)
(0.136825 -0.0848112 0)
(0.155623 -0.073086 0)
(0.171998 -0.0561365 0)
(0.184173 -0.0349948 0)
(0.190646 -0.0113722 0)
(0.190641 0.0125495 0)
(0.184264 0.0345213 0)
(0.172404 0.0526196 0)
(0.15641 0.0655331 0)
(0.137728 0.0726754 0)
(0.117655 0.0740846 0)
(0.096988 0.0701823 0)
(0.0843976 0.0682168 0)
(0.087581 -0.105639 0)
(0.100146 -0.106041 0)
(0.120515 -0.108414 0)
(0.141734 -0.105055 0)
(0.162991 -0.0958899 0)
(0.182946 -0.080908 0)
(0.199904 -0.0606348 0)
(0.212114 -0.0362713 0)
(0.218226 -0.00965729 0)
(0.217633 0.0169963 0)
(0.21057 0.0414649 0)
(0.197953 0.0618665 0)
(0.181143 0.0769393 0)
(0.161609 0.0861235 0)
(0.140628 0.0894241 0)
(0.119004 0.0872453 0)
(0.105277 0.0868827 0)
(0.108235 -0.127183 0)
(0.122629 -0.125365 0)
(0.144753 -0.124751 0)
(0.167511 -0.118153 0)
(0.189893 -0.105577 0)
(0.210447 -0.087143 0)
(0.227468 -0.0635392 0)
(0.239316 -0.0360994 0)
(0.244832 -0.00671396 0)
(0.243572 0.0224358 0)
(0.235848 0.0491976 0)
(0.222622 0.0717834 0)
(0.205264 0.0890178 0)
(0.185212 0.100375 0)
(0.16371 0.105839 0)
(0.141554 0.105813 0)
(0.126829 0.107453 0)
(0.130858 -0.148862 0)
(0.147056 -0.144361 0)
(0.170619 -0.14014 0)
(0.194483 -0.129832 0)
(0.217473 -0.113541 0)
(0.238085 -0.0915356 0)
(0.254685 -0.0646493 0)
(0.265817 -0.0342955 0)
(0.270522 -0.0023572 0)
(0.268486 0.0290606 0)
(0.260104 0.0579295 0)
(0.246382 0.0826052 0)
(0.228673 0.102019 0)
(0.20835 0.115678 0)
(0.186597 0.123549 0)
(0.164202 0.126043 0)
(0.148525 0.130016 0)
(0.155616 -0.170075 0)
(0.173543 -0.162426 0)
(0.198174 -0.154034 0)
(0.222658 -0.139601 0)
(0.245704 -0.119362 0)
(0.265835 -0.0937363 0)
(0.281561 -0.0636668 0)
(0.291636 -0.0305913 0)
(0.295283 0.00365724 0)
(0.292336 0.0371058 0)
(0.283287 0.0679159 0)
(0.26916 0.0946169 0)
(0.251228 0.116243 0)
(0.230779 0.132336 0)
(0.20894 0.142851 0)
(0.186462 0.148184 0)
(0.169772 0.154753 0)
(0.182759 -0.190095 0)
(0.202272 -0.178808 0)
(0.227549 -0.165731 0)
(0.252111 -0.146828 0)
(0.274619 -0.122482 0)
(0.293695 -0.0932543 0)
(0.30805 -0.0601645 0)
(0.316669 -0.0246331 0)
(0.318992 0.0116375 0)
(0.315013 0.0468804 0)
(0.305299 0.0794877 0)
(0.290808 0.108162 0)
(0.272699 0.132045 0)
(0.252165 0.150714 0)
(0.230267 0.1641 0)
(0.207721 0.172568 0)
(0.189833 0.181952 0)
(0.21265 -0.207913 0)
(0.233545 -0.192477 0)
(0.258941 -0.174232 0)
(0.282917 -0.150582 0)
(0.304178 -0.122081 0)
(0.321523 -0.0894001 0)
(0.333935 -0.0535744 0)
(0.340691 -0.0159309 0)
(0.341454 0.0220327 0)
(0.336348 0.0588196 0)
(0.325924 0.0930637 0)
(0.311044 0.123655 0)
(0.292723 0.149849 0)
(0.272016 0.171244 0)
(0.249917 0.187727 0)
(0.227126 0.199626 0)
(0.207714 0.212015 0)
(0.245819 -0.222032 0)
(0.267725 -0.20184 0)
(0.292474 -0.178022 0)
(0.314958 -0.14952 0)
(0.334067 -0.117016 0)
(0.348907 -0.0812321 0)
(0.358786 -0.0431137 0)
(0.363273 -0.00381479 0)
(0.362235 0.0354251 0)
(0.355859 0.0734124 0)
(0.34463 0.109068 0)
(0.329269 0.141489 0)
(0.310612 0.170034 0)
(0.289536 0.194317 0)
(0.266918 0.214182 0)
(0.243421 0.229869 0)
(0.221897 0.245421 0)
(0.282564 -0.230032 0)
(0.304819 -0.204359 0)
(0.327707 -0.174819 0)
(0.347425 -0.141742 0)
(0.363282 -0.105787 0)
(0.374779 -0.0675994 0)
(0.38155 -0.027946 0)
(0.383394 0.0122942 0)
(0.380311 0.0522118 0)
(0.372495 0.0909476 0)
(0.360321 0.127711 0)
(0.344301 0.161819 0)
(0.325055 0.192738 0)
(0.303251 0.220087 0)
(0.279572 0.243663 0)
(0.254583 0.263544 0)
(0.229961 0.282386 0)
(0.320841 -0.227453 0)
(0.342083 -0.195913 0)
(0.361225 -0.161616 0)
(0.376745 -0.125174 0)
(0.388376 -0.087059 0)
(0.395926 -0.0477415 0)
(0.399262 -0.00774021 0)
(0.398324 0.0324001 0)
(0.393145 0.0721298 0)
(0.383845 0.110912 0)
(0.370619 0.148238 0)
(0.353737 0.183638 0)
(0.333526 0.216701 0)
(0.310366 0.247075 0)
(0.284663 0.274488 0)
(0.256792 0.298791 0)
(0.227437 0.320796 0)
(0.340602 -0.22331 0)
(0.36085 -0.188849 0)
(0.377623 -0.15257 0)
(0.39076 -0.114822 0)
(0.400132 -0.0759682 0)
(0.405652 -0.0363826 0)
(0.407265 0.00355346 0)
(0.404955 0.0434553 0)
(0.398746 0.0829386 0)
(0.388697 0.121623 0)
(0.374904 0.159136 0)
(0.3575 0.195117 0)
(0.336654 0.229219 0)
(0.312566 0.261113 0)
(0.285467 0.290492 0)
(0.255619 0.317074 0)
(0.22331 0.340602 0)
(0 0 0)
(0 0 0)
(0 0 0)
(0 0 0)
(0 0 0)
(0 0 0)
(0 0 0)
(0 0 0)
(0 0 0)
(0 0 0)
(0 0 0)
(0 0 0)
(0 0 0)
(0 0 0)
(0 0 0)
(0 0 0)
(0.00897945 0.00723471 0)
(0.01231 0.0109772 0)
(0.0144603 0.0149841 0)
(0.0153315 0.0193416 0)
(0.0147757 0.0239273 0)
(0.0126866 0.028384 0)
(0.00914104 0.0321839 0)
(0.00447483 0.0347469 0)
(-0.000699512 0.0354965 0)
(-0.00556259 0.0341302 0)
(-0.00930484 0.0308798 0)
(-0.0113758 0.0262777 0)
(-0.0115993 0.0209444 0)
(-0.0100964 0.0153625 0)
(-0.00720324 0.00981416 0)
(-0.00530431 0.0069199 0)
(0.0207464 0.0170985 0)
(0.0263553 0.0243265 0)
(0.0296743 0.032072 0)
(0.0305492 0.0404089 0)
(0.0287455 0.0490293 0)
(0.0241463 0.0572434 0)
(0.0169773 0.0640946 0)
(0.00791375 0.0685351 0)
(-0.00191011 0.0696476 0)
(-0.0110705 0.0670648 0)
(-0.0182205 0.0612008 0)
(-0.0224475 0.0529438 0)
(-0.0234193 0.0432996 0)
(-0.0212851 0.0330995 0)
(-0.0165238 0.022839 0)
(-0.0133808 0.0173776 0)
(0.0347692 0.0293096 0)
(0.041593 0.0397115 0)
(0.0451584 0.0508656 0)
(0.0452638 0.0627322 0)
(0.0416426 0.0747868 0)
(0.0342329 0.0860319 0)
(0.0234589 0.0951912 0)
(0.0103211 0.100883 0)
(-0.00363291 0.102033 0)
(-0.0165601 0.0983582 0)
(-0.0267864 0.0904229 0)
(-0.0331871 0.0793544 0)
(-0.0353099 0.0663816 0)
(-0.0332821 0.0525487 0)
(-0.0276135 0.0385001 0)
(-0.0238755 0.0307964 0)
(0.0506801 0.0437389 0)
(0.0577263 0.0570246 0)
(0.0606825 0.071236 0)
(0.0593308 0.0861705 0)
(0.0534134 0.101071 0)
(0.0429747 0.114679 0)
(0.028651 0.125469 0)
(0.0117387 0.131886 0)
(-0.00590181 0.13285 0)
(-0.0221692 0.128193 0)
(-0.0352127 0.118632 0)
(-0.0437937 0.105441 0)
(-0.0473745 0.0899564 0)
(-0.0460496 0.0733605 0)
(-0.0403101 0.056387 0)
(-0.0366101 0.0467697 0)
(0.0680955 0.0602727 0)
(0.0744359 0.076155 0)
(0.0760065 0.0930657 0)
(0.0725958 0.110597 0)
(0.0639876 0.12777 0)
(0.0503688 0.143127 0)
(0.0325807 0.154954 0)
(0.0121694 0.16165 0)
(-0.00878527 0.162258 0)
(-0.0280516 0.156737 0)
(-0.0437114 0.145923 0)
(-0.0544693 0.131155 0)
(-0.0597425 0.113826 0)
(-0.0596039 0.0952058 0)
(-0.0545039 0.0760755 0)
(-0.0514327 0.0648509 0)
(0.0866058 0.078815 0)
(0.0914011 0.0970209 0)
(0.0908815 0.116252 0)
(0.084886 0.135908 0)
(0.073267 0.154802 0)
(0.0563706 0.171323 0)
(0.0352298 0.183661 0)
(0.011578 0.190284 0)
(-0.0123772 0.190402 0)
(-0.0343723 0.184123 0)
(-0.0524826 0.172347 0)
(-0.0654061 0.156426 0)
(-0.0725675 0.137805 0)
(-0.0740086 0.11778 0)
(-0.0701454 0.0971475 0)
(-0.0682326 0.0845801 0)
(0.105774 0.0992975 0)
(0.108271 0.119556 0)
(0.10505 0.140743 0)
(0.0960171 0.162049 0)
(0.0811325 0.18212 0)
(0.0609017 0.199235 0)
(0.0365306 0.211611 0)
(0.00988128 0.217871 0)
(-0.01681 0.2174 0)
(-0.0413045 0.210436 0)
(-0.0617204 0.197905 0)
(-0.0768061 0.181172 0)
(-0.0860142 0.161702 0)
(-0.0893562 0.140768 0)
(-0.0872318 0.119176 0)
(-0.0869409 0.105469 0)
(0.125129 0.121701 0)
(0.124657 0.143742 0)
(0.118205 0.166505 0)
(0.105752 0.18897 0)
(0.0873999 0.209659 0)
(0.0638249 0.226841 0)
(0.0363695 0.238848 0)
(0.00694458 0.244504 0)
(-0.0222453 0.243359 0)
(-0.0490353 0.235731 0)
(-0.0716379 0.222592 0)
(-0.0888884 0.205312 0)
(-0.100276 0.185321 0)
(-0.10579 0.16386 0)
(-0.105831 0.14173 0)
(-0.107558 0.127022 0)
(0.144165 0.146083 0)
(0.1401 0.169596 0)
(0.129938 0.193503 0)
(0.113756 0.21661 0)
(0.0918107 0.237372 0)
(0.064938 0.254129 0)
(0.0345608 0.265407 0)
(0.00258084 0.270237 0)
(-0.0288777 0.268305 0)
(-0.0577759 0.260013 0)
(-0.0824708 0.246375 0)
(-0.101907 0.228739 0)
(-0.115604 0.208471 0)
(-0.123532 0.186753 0)
(-0.1261 0.164375 0)
(-0.130171 0.148705 0)
(0.162278 0.172574 0)
(0.154045 0.197198 0)
(0.139749 0.22176 0)
(0.119598 0.24494 0)
(0.0940115 0.265224 0)
(0.0639413 0.281096 0)
(0.0308363 0.291297 0)
(-0.00345423 0.295052 0)
(-0.0369421 0.292195 0)
(-0.0677813 0.283228 0)
(-0.0945055 0.269176 0)
(-0.116162 0.251308 0)
(-0.132301 0.230904 0)
(-0.142881 0.209096 0)
(-0.148296 0.186628 0)
(-0.154967 0.169929 0)
(0.178708 0.2014 0)
(0.165781 0.226704 0)
(0.146995 0.251356 0)
(0.122713 0.273995 0)
(0.0935078 0.293207 0)
(0.0604071 0.307685 0)
(0.0248433 0.316409 0)
(-0.0114672 0.318819 0)
(-0.0467459 0.314915 0)
(-0.0793819 0.305268 0)
(-0.108084 0.290838 0)
(-0.132004 0.27278 0)
(-0.150728 0.252282 0)
(-0.164185 0.230408 0)
(-0.172745 0.207868 0)
(-0.182225 0.189963 0)
(0.192418 0.232871 0)
(0.174298 0.258305 0)
(0.150736 0.28236 0)
(0.122279 0.303722 0)
(0.0896075 0.321171 0)
(0.0537667 0.333675 0)
(0.0160932 0.340509 0)
(-0.0219047 0.341337 0)
(-0.0587222 0.336288 0)
(-0.0929929 0.325914 0)
(-0.123614 0.311079 0)
(-0.149846 0.292792 0)
(-0.171297 0.272108 0)
(-0.187851 0.250021 0)
(-0.199836 0.22723 0)
(-0.212302 0.207802 0)
(0.201815 0.267303 0)
(0.178083 0.292081 0)
(0.149635 0.314616 0)
(0.117156 0.333787 0)
(0.0813739 0.34869 0)
(0.043242 0.358627 0)
(0.00392031 0.363164 0)
(-0.0353446 0.362167 0)
(-0.0733545 0.355827 0)
(-0.109031 0.34463 0)
(-0.141477 0.329297 0)
(-0.170056 0.310658 0)
(-0.194383 0.289594 0)
(-0.214304 0.266979 0)
(-0.230057 0.243474 0)
(-0.245662 0.221935 0)
(0.204356 0.304625 0)
(0.174858 0.327526 0)
(0.141805 0.347267 0)
(0.105859 0.363153 0)
(0.0676707 0.37468 0)
(0.0280089 0.381478 0)
(-0.012244 0.383345 0)
(-0.0521751 0.380281 0)
(-0.0909232 0.372482 0)
(-0.127698 0.360323 0)
(-0.161822 0.344315 0)
(-0.192761 0.325077 0)
(-0.220136 0.303275 0)
(-0.243745 0.279595 0)
(-0.263663 0.254598 0)
(-0.282533 0.229964 0)
(0.195915 0.342034 0)
(0.161629 0.36118 0)
(0.125192 0.376706 0)
(0.0870787 0.388344 0)
(0.0477601 0.395902 0)
(0.00775615 0.399244 0)
(-0.0323877 0.398312 0)
(-0.0721211 0.393138 0)
(-0.110907 0.383842 0)
(-0.148236 0.370619 0)
(-0.183641 0.35374 0)
(-0.216709 0.333531 0)
(-0.247091 0.310371 0)
(-0.274515 0.284666 0)
(-0.298829 0.256792 0)
(-0.320841 0.227433 0)
(0.188849 0.36085 0)
(0.15257 0.377623 0)
(0.114822 0.39076 0)
(0.0759682 0.400132 0)
(0.0363826 0.405652 0)
(-0.00355346 0.407265 0)
(-0.0434553 0.404955 0)
(-0.0829386 0.398746 0)
(-0.121623 0.388697 0)
(-0.159136 0.374904 0)
(-0.195117 0.3575 0)
(-0.229219 0.336654 0)
(-0.261113 0.312566 0)
(-0.290492 0.285467 0)
(-0.317074 0.255619 0)
(-0.340602 0.22331 0)
(0 0 0)
(0 0 0)
(0 0 0)
(0 0 0)
(0 0 0)
(0 0 0)
(0 0 0)
(0 0 0)
(0 0 0)
(0 0 0)
(0 0 0)
(0 0 0)
(0 0 0)
(0 0 0)
(0 0 0)
(0 0 0)
(0.00897945 0.00723471 0)
(0.01231 0.0109772 0)
(0.0144603 0.0149841 0)
(0.0153315 0.0193416 0)
(0.0147757 0.0239273 0)
(0.0126866 0.028384 0)
(0.00914104 0.0321839 0)
(0.00447483 0.0347469 0)
(-0.000699512 0.0354965 0)
(-0.00556259 0.0341302 0)
(-0.00930484 0.0308798 0)
(-0.0113758 0.0262777 0)
(-0.0115993 0.0209444 0)
(-0.0100964 0.0153625 0)
(-0.00720324 0.00981416 0)
(-0.00530431 0.0069199 0)
(0.0207464 0.0170985 0)
(0.0263553 0.0243265 0)
(0.0296743 0.032072 0)
(0.0305492 0.0404089 0)
(0.0287455 0.0490293 0)
(0.0241463 0.0572434 0)
(0.0169773 0.0640946 0)
(0.00791375 0.0685351 0)
(-0.00191011 0.0696476 0)
(-0.0110705 0.0670648 0)
(-0.0182205 0.0612008 0)
(-0.0224475 0.0529438 0)
(-0.0234193 0.0432996 0)
(-0.0212851 0.0330995 0)
(-0.0165238 0.022839 0)
(-0.0133808 0.0173776 0)
(0.0347692 0.0293096 0)
(0.041593 0.0397115 0)
(0.0451584 0.0508656 0)
(0.0452638 0.0627322 0)
(0.0416426 0.0747868 0)
(0.0342329 0.0860319 0)
(0.0234589 0.0951912 0)
(0.0103211 0.100883 0)
(-0.00363291 0.102033 0)
(-0.0165601 0.0983582 0)
(-0.0267864 0.0904229 0)
(-0.0331871 0.0793544 0)
(-0.0353099 0.0663816 0)
(-0.0332821 0.0525487 0)
(-0.0276135 0.0385001 0)
(-0.0238755 0.0307964 0)
(0.0506801 0.0437389 0)
(0.0577263 0.0570246 0)
(0.0606825 0.071236 0)
(0.0593308 0.0861705 0)
(0.0534134 0.101071 0)
(0.0429747 0.114679 0)
(0.028651 0.125469 0)
(0.0117387 0.131886 0)
(-0.00590181 0.13285 0)
(-0.0221692 0.128193 0)
(-0.0352127 0.118632 0)
(-0.0437937 0.105441 0)
(-0.0473745 0.0899564 0)
(-0.0460496 0.0733605 0)
(-0.0403101 0.056387 0)
(-0.0366101 0.0467697 0)
(0.0680955 0.0602727 0)
(0.0744359 0.076155 0)
(0.0760065 0.0930657 0)
(0.0725958 0.110597 0)
(0.0639876 0.12777 0)
(0.0503688 0.143127 0)
(0.0325807 0.154954 0)
(0.0121694 0.16165 0)
(-0.00878527 0.162258 0)
(-0.0280516 0.156737 0)
(-0.0437114 0.145923 0)
(-0.0544693 0.131155 0)
(-0.0597425 0.113826 0)
(-0.0596039 0.0952058 0)
(-0.0545039 0.0760755 0)
(-0.0514327 0.0648509 0)
(0.0866058 0.078815 0)
(0.0914011 0.0970209 0)
(0.0908815 0.116252 0)
(0.084886 0.135908 0)
(0.073267 0.154802 0)
(0.0563706 0.171323 0)
(0.0352298 0.183661 0)
(0.011578 0.190284 0)
(-0.0123772 0.190402 0)
(-0.0343723 0.184123 0)
(-0.0524826 0.172347 0)
(-0.0654061 0.156426 0)
(-0.0725675 0.137805 0)
(-0.0740086 0.11778 0)
(-0.0701454 0.0971475 0)
(-0.0682326 0.0845801 0)
(0.105774 0.0992975 0)
(0.108271 0.119556 0)
(0.10505 0.140743 0)
(0.0960171 0.162049 0)
(0.0811325 0.18212 0)
(0.0609017 0.199235 0)
(0.0365306 0.211611 0)
(0.00988128 0.217871 0)
(-0.01681 0.2174 0)
(-0.0413045 0.210436 0)
(-0.0617204 0.197905 0)
(-0.0768061 0.181172 0)
(-0.0860142 0.161702 0)
(-0.0893562 0.140768 0)
(-0.0872318 0.119176 0)
(-0.0869409 0.105469 0)
(0.125129 0.121701 0)
(0.124657 0.143742 0)
(0.118205 0.166505 0)
(0.105752 0.18897 0)
(0.0873999 0.209659 0)
(0.0638249 0.226841 0)
(0.0363695 0.238848 0)
(0.00694458 0.244504 0)
(-0.0222453 0.243359 0)
(-0.0490353 0.235731 0)
(-0.0716379 0.222592 0)
(-0.0888884 0.205312 0)
(-0.100276 0.185321 0)
(-0.10579 0.16386 0)
(-0.105831 0.14173 0)
(-0.107558 0.127022 0)
(0.144165 0.146083 0)
(0.1401 0.169596 0)
(0.129938 0.193503 0)
(0.113756 0.21661 0)
(0.0918107 0.237372 0)
(0.064938 0.254129 0)
(0.0345608 0.265407 0)
(0.00258084 0.270237 0)
(-0.0288777 0.268305 0)
(-0.0577759 0.260013 0)
(-0.0824708 0.246375 0)
(-0.101907 0.228739 0)
(-0.115604 0.208471 0)
(-0.123532 0.186753 0)
(-0.1261 0.164375 0)
(-0.130171 0.148705 0)
(0.162278 0.172574 0)
(0.154045 0.197198 0)
(0.139749 0.22176 0)
(0.119598 0.24494 0)
(0.0940115 0.265224 0)
(0.0639413 0.281096 0)
(0.0308363 0.291297 0)
(-0.00345423 0.295052 0)
(-0.0369421 0.292195 0)
(-0.0677813 0.283228 0)
(-0.0945055 0.269176 0)
(-0.116162 0.251308 0)
(-0.132301 0.230904 0)
(-0.142881 0.209096 0)
(-0.148296 0.186628 0)
(-0.154967 0.169929 0)
(0.178708 0.2014 0)
(0.165781 0.226704 0)
(0.146995 0.251356 0)
(0.122713 0.273995 0)
(0.0935078 0.293207 0)
(0.0604071 0.307685 0)
(0.0248433 0.316409 0)
(-0.0114672 0.318819 0)
(-0.0467459 0.314915 0)
(-0.0793819 0.305268 0)
(-0.108084 0.290838 0)
(-0.132004 0.27278 0)
(-0.150728 0.252282 0)
(-0.164185 0.230408 0)
(-0.172745 0.207868 0)
(-0.182225 0.189963 0)
(0.192418 0.232871 0)
(0.174298 0.258305 0)
(0.150736 0.28236 0)
(0.122279 0.303722 0)
(0.0896075 0.321171 0)
(0.0537667 0.333675 0)
(0.0160932 0.340509 0)
(-0.0219047 0.341337 0)
(-0.0587222 0.336288 0)
(-0.0929929 0.325914 0)
(-0.123614 0.311079 0)
(-0.149846 0.292792 0)
(-0.171297 0.272108 0)
(-0.187851 0.250021 0)
(-0.199836 0.22723 0)
(-0.212302 0.207802 0)
(0.201815 0.267303 0)
(0.178083 0.292081 0)
(0.149635 0.314616 0)
(0.117156 0.333787 0)
(0.0813739 0.34869 0)
(0.043242 0.358627 0)
(0.00392031 0.363164 0)
(-0.0353446 0.362167 0)
(-0.0733545 0.355827 0)
(-0.109031 0.34463 0)
(-0.141477 0.329297 0)
(-0.170056 0.310658 0)
(-0.194383 0.289594 0)
(-0.214304 0.266979 0)
(-0.230057 0.243474 0)
(-0.245662 0.221935 0)
(0.204356 0.304625 0)
(0.174858 0.327526 0)
(0.141805 0.347267 0)
(0.105859 0.363153 0)
(0.0676707 0.37468 0)
(0.0280089 0.381478 0)
(-0.012244 0.383345 0)
(-0.0521751 0.380281 0)
(-0.0909232 0.372482 0)
(-0.127698 0.360323 0)
(-0.161822 0.344315 0)
(-0.192761 0.325077 0)
(-0.220136 0.303275 0)
(-0.243745 0.279595 0)
(-0.263663 0.254598 0)
(-0.282533 0.229964 0)
(0.195915 0.342034 0)
(0.161629 0.36118 0)
(0.125192 0.376706 0)
(0.0870787 0.388344 0)
(0.0477601 0.395902 0)
(0.00775615 0.399244 0)
(-0.0323877 0.398312 0)
(-0.0721211 0.393138 0)
(-0.110907 0.383842 0)
(-0.148236 0.370619 0)
(-0.183641 0.35374 0)
(-0.216709 0.333531 0)
(-0.247091 0.310371 0)
(-0.274515 0.284666 0)
(-0.298829 0.256792 0)
(-0.320841 0.227433 0)
(0.188849 0.36085 0)
(0.15257 0.377623 0)
(0.114822 0.39076 0)
(0.0759682 0.400132 0)
(0.0363826 0.405652 0)
(-0.00355346 0.407265 0)
(-0.0434553 0.404955 0)
(-0.0829386 0.398746 0)
(-0.121623 0.388697 0)
(-0.159136 0.374904 0)
(-0.195117 0.3575 0)
(-0.229219 0.336654 0)
(-0.261113 0.312566 0)
(-0.290492 0.285467 0)
(-0.317074 0.255619 0)
(-0.340602 0.22331 0)
(0 0 0)
(0 0 0)
(0 0 0)
(0 0 0)
(0 0 0)
(0 0 0)
(0 0 0)
(0 0 0)
(0 0 0)
(0 0 0)
(0 0 0)
(0 0 0)
(0 0 0)
(0 0 0)
(0 0 0)
(0 0 0)
(-0.00721462 0.00902037 0)
(-0.0109867 0.0123542 0)
(-0.0150268 0.0145019 0)
(-0.019414 0.0153635 0)
(-0.0240206 0.0147938 0)
(-0.0284876 0.0126911 0)
(-0.0322829 0.00913975 0)
(-0.034829 0.00447688 0)
(-0.0355577 -0.000689118 0)
(-0.0341738 -0.00554413 0)
(-0.0309123 -0.00928214 0)
(-0.0263032 -0.0113513 0)
(-0.0209634 -0.0115756 0)
(-0.0153727 -0.0100791 0)
(-0.00981303 -0.00719901 0)
(-0.00691133 -0.00530691 0)
(-0.0170761 0.0208261 0)
(-0.0243648 0.0264402 0)
(-0.0321744 0.0297514 0)
(-0.0405636 0.0306049 0)
(-0.0492171 0.0287728 0)
(-0.0574436 0.0241496 0)
(-0.0642816 0.0169726 0)
(-0.0686892 0.00791643 0)
(-0.0697638 -0.00189187 0)
(-0.0671497 -0.0110379 0)
(-0.0612645 -0.0181797 0)
(-0.0529926 -0.0224026 0)
(-0.0433349 -0.0233743 0)
(-0.0331187 -0.0212478 0)
(-0.022838 -0.0165045 0)
(-0.0173623 -0.0133711 0)
(-0.0293022 0.0348856 0)
(-0.0397935 0.0417124 0)
(-0.0510366 0.0452624 0)
(-0.0629705 0.0453343 0)
(-0.0750642 0.0416716 0)
(-0.0863181 0.0342299 0)
(-0.0954531 0.023447 0)
(-0.101097 0.0103214 0)
(-0.102197 -0.00361096 0)
(-0.0984804 -0.016519 0)
(-0.0905151 -0.0267335 0)
(-0.0794237 -0.0331275 0)
(-0.0664304 -0.0352472 0)
(-0.0525744 -0.0332233 0)
(-0.0384988 -0.0275699 0)
(-0.0307748 -0.0238377 0)
(-0.0437628 0.0508285 0)
(-0.0571608 0.0578723 0)
(-0.0714781 0.0608035 0)
(-0.0864898 0.059406 0)
(-0.10143 0.0534358 0)
(-0.115039 0.0429599 0)
(-0.125792 0.0286286 0)
(-0.132149 0.0117334 0)
(-0.133052 -0.0058806 0)
(-0.128347 -0.022125 0)
(-0.118748 -0.0351537 0)
(-0.105527 -0.0437245 0)
(-0.0900146 -0.0472972 0)
(-0.0733894 -0.0459687 0)
(-0.0563838 -0.0402352 0)
(-0.0467412 -0.0365315 0)
(-0.0603401 0.0682687 0)
(-0.0763503 0.0745986 0)
(-0.0933773 0.0761338 0)
(-0.11099 0.0726662 0)
(-0.1282 0.0639968 0)
(-0.143546 0.050338 0)
(-0.155322 0.0325445 0)
(-0.161949 0.012155 0)
(-0.162489 -0.00876884 0)
(-0.156914 -0.0280089 0)
(-0.146056 -0.0436506 0)
(-0.131251 -0.0543944 0)
(-0.113888 -0.0596533 0)
(-0.095234 -0.0595005 0)
(-0.0760691 -0.0543933 0)
(-0.0648166 -0.0513039 0)
(-0.0789336 0.086794 0)
(-0.0972756 0.0915696 0)
(-0.116627 0.091004 0)
(-0.136363 0.0849423 0)
(-0.155286 0.0732575 0)
(-0.171784 0.0563209 0)
(-0.184059 0.0351779 0)
(-0.190603 0.0115522 0)
(-0.19065 -0.0123684 0)
(-0.184312 -0.034334 0)
(-0.172487 -0.0524228 0)
(-0.156523 -0.0653278 0)
(-0.137864 -0.0724675 0)
(-0.117804 -0.0738832 0)
(-0.0971377 -0.0699969 0)
(-0.0845419 -0.0680487 0)
(-0.0994702 0.105966 0)
(-0.119866 0.108433 0)
(-0.141171 0.105156 0)
(-0.16255 0.0960517 0)
(-0.182637 0.0811009 0)
(-0.199715 0.0608333 0)
(-0.212019 0.0364639 0)
(-0.218197 0.00984408 0)
(-0.217651 -0.0168096 0)
(-0.210625 -0.0412718 0)
(-0.198042 -0.0616626 0)
(-0.181262 -0.076725 0)
(-0.161751 -0.0859041 0)
(-0.140784 -0.0892094 0)
(-0.119163 -0.0870456 0)
(-0.10543 -0.0867018 0)
(-0.121927 0.125314 0)
(-0.144103 0.124802 0)
(-0.166972 0.118286 0)
(-0.189495 0.105761 0)
(-0.210186 0.0873467 0)
(-0.227319 0.0637409 0)
(-0.239248 0.0362913 0)
(-0.244819 0.00689811 0)
(-0.2436 -0.0222525 0)
(-0.235908 -0.0490076 0)
(-0.222714 -0.0715816 0)
(-0.205384 -0.0888037 0)
(-0.185355 -0.100155 0)
(-0.163867 -0.105621 0)
(-0.141714 -0.105608 0)
(-0.126984 -0.107268 0)
(-0.146362 0.144329 0)
(-0.169995 0.140218 0)
(-0.19399 0.12999 0)
(-0.217135 0.113738 0)
(-0.237881 0.0917401 0)
(-0.25458 0.0648443 0)
(-0.265779 0.0344771 0)
(-0.270526 0.00252977 0)
(-0.268521 -0.0288892 0)
(-0.260167 -0.0577512 0)
(-0.246472 -0.0824145 0)
(-0.228789 -0.101816 0)
(-0.208486 -0.115467 0)
(-0.186746 -0.123339 0)
(-0.164355 -0.125845 0)
(-0.148674 -0.129838 0)
(-0.1729 0.16241 0)
(-0.197618 0.15413 0)
(-0.22224 0.139772 0)
(-0.245434 0.11956 0)
(-0.265687 0.0939316 0)
(-0.281496 0.0638467 0)
(-0.291621 0.0307551 0)
(-0.2953 -0.00350343 0)
(-0.292376 -0.0369536 0)
(-0.283349 -0.0677571 0)
(-0.269245 -0.0944466 0)