/*--------------------------------*- C++ -*----------------------------------*\
| =========                 |                                                 |
| \\      /  F ield         | OpenFOAM: The Open Source CFD Toolbox           |
|  \\    /   O peration     | Version:  2412                                  |
|   \\  /    A nd           | Website:  www.openfoam.com                      |
|    \\/     M anipulation  |                                                 |
\*---------------------------------------------------------------------------*/
FoamFile
{
    version     2.0;
    format      ascii;
    arch        "LSB;label=32;scalar=64";
    class       volVectorField;
    location    "15.4";
    object      U;
}
// * * * * * * * * * * * * * * * * * * * * * * * * * * * * * * * * * * * * * //

dimensions      [0 1 -1 0 0 0 0];

internalField   nonuniform List<vector> 
808
(
(0.890739 -0.0113983 0)
(1.02689 -0.0365762 0)
(1.17167 0.0897421 0)
(1.07084 0.0108595 -2.16594e-21)
(1.47498 -0.297752 0)
(0.95916 -0.0269383 0)
(1.14778 -0.061876 2.74921e-21)
(1.11664 -0.0319559 0)
(1.35252 -0.234365 2.47557e-20)
(1.23696 -0.0961744 -1.09967e-20)
(1.13071 -0.086107 5.02922e-21)
(1.38002 -0.267749 0)
(1.00116 -0.0323343 0)
(0.736509 -0.0275605 0)
(0.926068 0.0468273 1.83154e-20)
(1.07706 -0.0237299 0)
(0.812704 0.0208233 -5.67304e-21)
(1.00064 -0.0272259 -1.23029e-23)
(1.17394 0.0702807 0)
(1.12004 0.00325074 0)
(1.17476 -0.101941 -7.01925e-21)
(0.930499 0.123353 1.08723e-19)
(1.07599 0.0138304 -1.0603e-20)
(1.18097 -0.0331795 0)
(0.949389 0.180995 0)
(1.31988 0.0562078 -3.07234e-20)
(1.28194 -0.183876 8.67448e-21)
(0.948911 -0.00574667 -1.4495e-22)
(1.07288 -0.0191513 0)
(1.03306 0.0431106 -3.67995e-22)
(0.986949 -0.0223946 1.30251e-25)
(1.12616 -0.0123919 0)
(1.01284 0.0110053 0)
(1.05642 -0.0126169 1.49889e-22)
(1.31171 -0.0795899 9.76545e-21)
(0.740541 -0.117284 1.10197e-19)
(0.874194 -0.0307862 -1.61973e-22)
(0.998894 0.0261431 3.71873e-22)
(1.19406 0.0481009 -4.36606e-22)
(1.08361 0.0137221 0)
(1.27071 -0.0702465 -1.95741e-20)
(1.2793 -0.138264 0)
(1.00711 0.00202593 -4.99519e-21)
(1.10526 -0.0559511 3.29287e-21)
(1.19094 0.003206 0)
(1.01015 0.0164991 -1.72243e-20)
(0.981094 0.0411875 -4.68322e-23)
(1.25383 -0.258265 5.37244e-21)
(1.16954 0.0475465 -1.4501e-22)
(1.40927 -0.196098 -3.57642e-20)
(1.14013 -0.0653243 -3.86864e-21)
(1.15299 -0.0762471 0)
(1.1224 -0.00143189 4.42454e-21)
(1.09408 -0.0174787 0)
(1.31371 0.23268 5.2365e-21)
(1.06142 0.0409148 8.42722e-23)
(1.09974 -0.0171754 0)
(1.13472 -0.041601 3.64578e-21)
(1.24049 -0.100315 1.1804e-20)
(1.13928 0.0393134 1.1586e-21)
(-0.302674 -0.00117814 0)
(1.21629 -0.218802 -7.12777e-21)
(1.13352 -0.0299148 0)
(1.44556 -0.0934471 -3.01823e-20)
(1.10586 -0.05911 -4.61828e-21)
(1.04131 -0.0300193 -5.06451e-21)
(1.34683 -0.15394 3.04989e-20)
(0.621424 0.0139974 0)
(1.11266 -0.0759195 0)
(1.43577 -0.361932 0)
(0.883821 0.0316349 -6.39363e-23)
(1.23152 -0.151383 -3.8698e-20)
(0.999454 0.0507656 0)
(1.04558 -0.0478428 -5.51318e-22)
(1.12394 -0.3398 -5.61121e-20)
(1.12355 -0.0602886 -2.07321e-22)
(1.14388 0.028816 8.66153e-22)
(1.31571 0.491541 2.49377e-20)
(1.11244 -0.0507576 0)
(1.01313 0.279017 -1.78964e-19)
(1.34209 0.0371073 1.80708e-20)
(0.72154 0.0228486 0)
(0.83997 0.0354028 -2.04733e-21)
(0.967988 -0.110755 4.13366e-21)
(1.10774 -0.0640213 3.96146e-22)
(1.19438 0.0177902 2.13533e-21)
(1.2711 -0.24356 0)
(1.34501 0.280936 0)
(1.08915 0.000978116 -4.45855e-21)
(1.38294 0.0877073 3.39863e-20)
(1.08034 -0.0180474 7.71136e-21)
(1.32465 -0.132196 -1.45904e-21)
(0.965174 0.0262933 1.63529e-20)
(1.00424 -0.0226643 0)
(1.1166 0.018925 1.05632e-21)
(1.32667 -0.0910844 -8.42137e-20)
(0.764507 0.00977012 -2.68889e-22)
(1.3464 -0.0327491 0)
(1.33482 -0.0959735 0)
(1.42858 -0.116843 -4.62588e-20)
(1.09678 -0.0591395 2.79629e-22)
(1.12568 0.0117889 1.25898e-22)
(0.953731 0.023879 6.84101e-21)
(1.18726 0.015035 -1.01833e-21)
(1.34046 0.0378562 -3.31679e-20)
(1.00046 0.00686186 1.05438e-20)
(1.4541 -0.00490265 0)
(0.932788 -0.0205388 0)
(1.09079 0.0344081 -6.74995e-22)
(1.20269 -0.224996 -6.92695e-21)
(1.27884 0.0257947 1.52435e-20)
(1.04667 0.0467982 -1.20036e-19)
(1.15143 0.0412997 4.75316e-22)
(1.18009 0.0339501 3.09731e-21)
(0.80453 0.0112302 0)
(0.916764 -0.0486417 7.50266e-20)
(1.14544 0.0258502 1.29776e-21)
(1.42911 -0.276631 -1.72311e-20)
(1.10121 -0.0450907 -1.93639e-21)
(0.921526 0.0144017 2.46932e-21)
(-0.358751 0.000902438 0)
(0.865499 -0.0158636 2.18342e-21)
(0.803819 0.02497 0)
(1.06447 0.00271756 -6.71053e-23)
(1.01156 0.0290364 0)
(1.30602 0.319162 8.16939e-21)
(1.03457 -0.0563183 -2.80775e-20)
(1.28712 0.0643051 2.64715e-21)
(1.15263 -0.0631436 0)
(1.09001 -0.0234644 0)
(0.57063 -0.0696975 0)
(1.10342 -0.0390522 -1.42668e-21)
(1.25657 -0.0536578 1.15638e-20)
(1.06493 0.112861 -3.13321e-20)
(0.85286 -0.018367 0)
(1.10087 0.0258972 2.23052e-22)
(1.19181 0.0990097 1.17325e-21)
(1.17106 0.00324755 -8.86408e-23)
(0.977651 0.0329295 5.40886e-22)
(1.12716 0.0087954 -1.05545e-22)
(-0.0201394 0.0148241 0)
(1.0973 -0.0206168 -8.67648e-21)
(1.20162 0.114051 1.46108e-21)
(0.718578 0.0248149 -8.81903e-22)
(1.25565 0.165 2.42672e-21)
(1.11771 0.0433502 1.81517e-21)
(1.05005 0.0164994 1.39768e-20)
(0.991104 0.0270525 0)
(1.17449 0.00324022 -2.75761e-20)
(1.03458 -0.0160509 0)
(0.929434 0.0332191 1.54335e-21)
(0.968495 0.279667 1.43235e-19)
(0.959958 0.0328325 0)
(0.817916 0.0958317 0)
(-0.123838 -0.0291169 -6.84222e-20)
(1.3334 0.131598 -1.31656e-20)
(0.663596 -0.022951 0)
(1.42687 0.0490674 0)
(1.16881 0.102368 0)
(1.34392 0.0970127 1.45141e-20)
(-0.0387102 -0.12175 0)
(-0.0639037 0.0271575 3.33053e-20)
(0.969581 -0.0777088 7.81546e-20)
(0.995999 0.0392514 -2.32316e-22)
(0.864372 0.0016892 0)
(1.02404 -0.0352519 3.33228e-21)
(0.894303 0.0249563 0)
(0.722956 -0.0597717 -8.44655e-20)
(1.02065 0.0481813 7.13656e-22)
(1.09937 -0.0527767 1.75463e-21)
(1.09767 0.0102096 2.80756e-21)
(1.01378 0.0690971 -1.10648e-20)
(0.802926 -0.0184536 -1.80704e-21)
(1.13882 -0.353305 5.58936e-22)
(0.913763 -0.0257956 0)
(1.06871 0.000699996 -1.08885e-20)
(0.876674 0.00903998 -9.02408e-21)
(1.38687 -0.183216 2.21522e-21)
(0.689886 0.0303497 0)
(1.02768 -0.150421 0)
(1.09788 -0.0247767 1.34798e-21)
(1.38612 0.210647 1.05664e-20)
(1.11605 0.0200429 1.26348e-21)
(1.03715 0.0186569 1.86123e-20)
(0.659814 -0.0014306 -6.3599e-20)
(0.814577 0.00260824 1.71383e-20)
(1.1397 -0.0195119 1.11643e-21)
(1.40482 -0.087416 -5.77273e-21)
(1.09937 -0.0383113 -3.05755e-21)
(1.33799 -0.0470317 4.94673e-21)
(-0.126902 -0.00200977 4.98784e-20)
(1.28566 -0.0214582 0)
(0.594732 -0.0203936 0)
(1.06412 -0.0264565 -5.27658e-21)
(1.09925 0.0127998 -1.01171e-21)
(0.0222757 0.0460524 0)
(0.878805 -0.0210575 7.72878e-23)
(1.11242 -0.0255422 -1.76073e-21)
(0.976543 -0.00667611 -9.28457e-22)
(1.07845 0.0388034 -6.48661e-21)
(1.00969 0.0202201 2.72713e-21)
(1.03993 -0.0392564 1.55316e-21)
(1.03577 0.0280848 0)
(0.312379 -0.0473274 0)
(1.04608 -0.062727 0)
(1.13754 0.101907 -2.96066e-20)
(-0.0353534 -0.135918 4.57243e-20)
(1.06136 -0.00585802 7.84088e-24)
(1.17315 0.0703297 0)
(0.756876 0.0190472 -1.11098e-21)
(1.13824 -0.0388209 1.81364e-22)
(-0.0113015 -0.0392799 -1.43134e-19)
(0.836824 -0.0211865 -5.53894e-20)
(0.607898 -0.0192561 0)
(1.00885 -0.0462629 0)
(0.925531 0.045567 2.02585e-21)
(0.996337 -0.122118 5.47543e-21)
(1.27482 0.393433 7.94591e-22)
(1.09694 -0.0203739 -6.08517e-23)
(1.13521 -0.0236724 -3.5923e-21)
(1.02457 -0.0252075 0)
(1.35809 0.417719 -4.05713e-20)
(0.640267 -0.0226321 0)
(0.804601 -0.0211048 -1.23975e-21)
(1.02939 0.00579264 1.99661e-22)
(0.552877 0.0135087 0)
(1.10012 -0.00621246 0)
(0.0574477 -0.0588219 -4.87464e-20)
(1.10892 0.00343287 -7.67502e-21)
(0.747485 -0.000521549 9.7459e-23)
(0.99111 -0.00195771 0)
(0.536329 -0.0109192 0)
(0.769242 -0.00842628 -6.2319e-22)
(0.533988 -0.00746686 -2.68455e-22)
(1.32664 0.0532546 3.24404e-22)
(1.17521 0.0334265 -3.64673e-21)
(0.722945 -0.000420559 3.80198e-22)
(1.07415 -0.00576765 -1.31808e-22)
(1.12278 -0.0220638 5.73407e-23)
(0.530093 0.0102317 -2.94071e-22)
(1.11783 -0.0131664 2.49852e-22)
(1.11596 -0.00872255 0)
(0.993235 -0.00884672 0)
(0.513761 0.00588164 0)
(1.0202 0.00372773 0)
(1.12382 -0.00674551 -1.28508e-22)
(1.07125 -0.00423266 0)
(1.08716 -0.000518268 0)
(1.07048 0.0204267 0)
(1.13172 0.0617799 0)
(-0.0211641 -0.0452849 4.49229e-20)
(1.19503 -0.000313632 8.19299e-23)
(1.11996 0.0281149 0)
(1.36855 0.0536509 2.53292e-20)
(1.16098 -0.00144162 -1.87012e-22)
(1.10322 0.0449694 -7.31128e-22)
(1.17107 -0.0239215 2.73591e-21)
(1.14044 0.0190377 0)
(0.555454 -0.0144474 1.91983e-21)
(1.05056 0.0428737 1.07616e-20)
(1.19594 0.000825644 0)
(1.14032 -0.0335191 -2.71886e-22)
(1.16651 0.0169047 9.46601e-22)
(0.480036 0.0187649 -9.7874e-21)
(1.10967 0.0403345 2.34524e-21)
(1.16319 -0.0546341 -1.92242e-21)
(1.00146 -0.0178648 0)
(1.21946 0.0479913 -9.40921e-21)
(1.13702 0.00440516 -2.65485e-21)
(0.829624 0.0939751 5.91422e-21)
(0.897531 0.0446272 0)
(-0.0244581 -0.0216961 0)
(0.976999 0.112423 -1.7326e-20)
(1.10931 -0.0321566 0)
(1.31778 -0.0669555 2.82713e-20)
(1.14069 0.00686041 6.37498e-22)
(1.12515 -0.0387676 1.84807e-21)
(1.1452 0.0189892 -7.671e-22)
(1.37782 -0.0621872 1.23875e-19)
(1.01939 -0.327396 5.66519e-20)
(1.13068 -0.0231281 -6.43062e-22)
(0.959677 0.0633619 0)
(0.914153 -0.007396 0)
(0.899705 0.00263314 -2.30826e-20)
(1.2387 -0.00190025 -3.80072e-20)
(1.15645 -0.0443963 0)
(0.695721 0.00619783 5.1372e-21)
(0.324876 -0.131931 0)
(0.844633 0.0217019 3.21685e-21)
(0.916403 0.0599364 -5.95038e-21)
(0.802517 0.028207 -1.06357e-21)
(1.17842 -0.0215339 0)
(1.18463 0.00267707 -7.43606e-22)
(1.14524 0.0199453 3.84857e-21)
(0.794741 0.072157 -6.12869e-21)
(1.17931 -0.0334893 -2.54069e-21)
(0.882882 0.1019 0)
(1.09174 0.0722695 0)
(1.1396 -0.0139977 2.55923e-21)
(0.874107 0.0338657 -3.24954e-21)
(1.22696 0.00658516 3.78238e-21)
(1.12637 -0.0242273 -1.13932e-21)
(0.966518 0.0110749 5.80178e-22)
(1.10203 -0.0253713 0)
(0.407599 -0.137565 1.33191e-20)
(1.32565 0.0924799 -2.28534e-20)
(0.955853 0.0942516 -6.98136e-21)
(0.063972 -0.0216866 1.03491e-20)
(1.43489 -0.154035 2.6203e-20)
(0.826003 -0.0197796 5.96926e-20)
(1.23637 -0.0360098 -2.64933e-21)
(1.11994 -0.016404 -3.13107e-22)
(-0.0483757 -0.146018 -7.8028e-21)
(0.999099 -0.0065976 0)
(1.03393 -0.0873347 -1.5621e-20)
(0.860675 -0.0316949 1.79005e-22)
(1.08794 -0.0553897 6.54855e-22)
(0.79396 0.0501881 -1.2669e-21)
(0.540591 -0.00809053 -4.15692e-22)
(1.41292 -0.392498 -1.51328e-20)
(1.10739 0.0599741 0)
(1.02356 -0.010379 6.0111e-24)
(1.12288 0.0433598 -8.99174e-22)
(1.26687 -0.0771476 0)
(0.8756 -0.0353609 -2.30086e-21)
(1.1297 0.0478702 1.20031e-21)
(0.72422 0.0591137 1.71015e-20)
(1.16319 -0.0443974 1.29356e-20)
(0.934864 -0.0242996 1.29123e-21)
(-0.036709 -0.0816733 0)
(0.241472 0.218556 1.26222e-21)
(1.12584 0.0475417 0)
(0.912239 0.0953393 -7.07552e-21)
(0.848285 0.0586321 0)
(1.13306 -0.00328094 -1.89341e-21)
(1.0165 0.0266606 0)
(1.14692 -0.0594375 0)
(1.41059 -0.137321 2.33451e-20)
(0.796832 -0.0888838 0)
(1.12827 -0.0961119 1.80914e-20)
(1.06602 -0.00472324 6.15258e-23)
(1.04598 0.0554686 1.08055e-21)
(1.28536 -0.0188401 -1.59012e-20)
(1.23973 0.124845 -6.93448e-21)
(1.16331 0.000673347 1.44345e-20)
(1.15069 0.0574719 0)
(1.19614 -0.0866054 0)
(1.12665 0.056129 8.91049e-22)
(1.23724 -0.016421 0)
(1.40166 0.202693 -2.63609e-20)
(0.721883 0.00544565 1.95009e-21)
(1.02739 0.0171924 1.87685e-20)
(1.25446 0.049201 -4.26042e-22)
(-0.0108885 -0.0209579 0)
(-0.0298774 -0.0786289 0)
(0.0977132 -0.0133998 -4.15307e-20)
(-0.037443 -0.143717 0)
(0.653639 -0.0261096 -1.23978e-20)
(1.17842 0.0462264 -3.4526e-22)
(1.15264 -0.0907944 -1.8853e-22)
(1.28726 -0.121182 -2.39342e-21)
(1.23357 -0.0342671 0)
(0.729061 0.0016782 1.84786e-22)
(1.17012 0.0636925 0)
(1.08494 -0.0205452 6.49417e-23)
(0.491594 -0.109591 0)
(0.698494 -0.0718079 -4.47632e-22)
(1.15107 0.056753 0)
(1.1189 0.0138243 0)
(0.826479 0.0874443 6.91459e-20)
(0.604389 -0.123295 -1.63897e-21)
(0.949259 0.00382574 3.87317e-22)
(1.01391 0.0180542 -8.0364e-21)
(0.160583 -0.110167 0)
(1.15499 -0.0380962 -2.22731e-20)
(1.20477 0.062555 -6.813e-21)
(1.10139 -0.0282276 6.70564e-22)
(0.737472 -0.125267 7.46623e-21)
(-0.0474813 -0.111201 -9.54621e-20)
(1.15257 0.0514015 0)
(-0.0360148 0.0396308 0)
(1.17069 0.0556744 -5.12516e-24)
(0.566836 -0.165597 -8.03561e-21)
(1.09416 0.0243851 -4.93069e-21)
(1.11381 -0.0496754 0)
(1.13491 -0.0840996 -6.35711e-23)
(1.28052 -0.108522 2.63379e-20)
(0.516379 -0.057878 -9.06459e-21)
(1.15301 -0.0425903 2.26195e-21)
(1.17333 -0.0932234 2.04897e-22)
(0.208817 0.128368 1.33114e-20)
(1.23474 -0.130692 1.71266e-21)
(1.12607 0.0450724 0)
(1.16653 0.0561741 0)
(1.21434 -0.0692277 6.7199e-21)
(1.16402 0.0731611 6.15744e-21)
(0.677619 -0.0640327 -5.75268e-20)
(1.19486 -0.1251 -1.12271e-20)
(1.11122 0.0506764 1.2477e-21)
(0.480561 -0.00224845 1.64598e-21)
(0.40906 -0.0391052 -1.25142e-19)
(-0.160666 0.0448106 3.31948e-20)
(1.17123 0.182002 -6.59934e-21)
(1.2339 -0.499423 5.30324e-21)
(1.39968 0.0801747 -2.1469e-20)
(1.23358 -0.0461056 -7.96337e-21)
(0.938246 -0.236091 9.2952e-20)
(-0.175232 0.0737934 0)
(1.11713 -0.0143488 -3.20761e-22)
(0.061518 0.250459 -1.85946e-20)
(1.16505 0.0562282 4.43498e-24)
(1.16103 -0.00990158 4.93134e-21)
(1.08144 0.0375393 0)
(0.759041 -0.17381 0)
(1.17512 -0.0522481 0)
(1.19671 0.111511 1.37266e-21)
(1.26418 -0.0134986 -3.23961e-20)
(1.16702 -0.0597835 -6.00838e-21)
(0.517932 0.0084398 0)
(0.678626 0.000125025 0)
(0.681353 0.0020748 3.87031e-22)
(0.509385 -0.00918862 0)
(1.13813 0.0135466 0)
(1.02154 -0.0124895 2.20887e-20)
(0.471983 -0.0978611 0)
(0.931916 0.029572 0)
(1.08257 -0.0273508 0)
(1.17294 0.187091 -3.00538e-21)
(1.25028 0.0547883 1.37497e-20)
(0.967321 -0.031734 3.59726e-21)
(1.28479 -0.40545 -1.05679e-19)
(0.651429 -0.0745506 1.28622e-20)
(1.29613 0.0754564 2.74634e-21)
(1.24421 -0.0692609 0)
(-0.496994 0.0753549 0)
(-0.244178 -0.0135747 0)
(1.17694 -0.0324198 -9.99548e-21)
(1.32192 -0.297016 -2.52657e-20)
(1.29641 0.123139 0)
(1.08457 0.046793 -2.99031e-21)
(0.294659 -0.0863199 0)
(1.51444 -0.182131 7.28565e-20)
(0.410734 0.516623 1.13296e-19)
(0.256928 -0.0555071 0)
(1.0888 -0.281106 1.13439e-19)
(0.464898 0.12123 0)
(-0.270877 0.00575804 1.5747e-20)
(1.31484 0.112639 0)
(-0.0717103 -0.049385 -2.62618e-21)
(0.983438 -0.0492652 0)
(1.29133 -0.085549 -1.30797e-20)
(-0.126816 -0.0739717 -7.68638e-21)
(1.12849 -0.0270048 -1.24639e-21)
(1.15612 -0.11359 -7.08887e-21)
(0.573615 -0.51992 -9.07522e-20)
(1.15236 0.0153601 3.19018e-22)
(1.19745 -0.131123 2.27446e-21)
(1.17912 0.245703 -1.75814e-20)
(1.16896 -0.116827 -9.4688e-21)
(1.1704 -0.0112918 -1.63501e-21)
(-0.172739 -0.0894329 -5.40733e-20)
(0.0173805 0.0385834 -7.39492e-21)
(1.30049 0.0516652 1.38708e-21)
(1.05727 -0.0500996 0)
(0.517748 -0.104819 -4.77474e-21)
(1.39886 -0.449656 8.02544e-20)
(0.912835 -0.0904988 -5.71745e-20)
(1.41453 0.146985 7.66805e-20)
(1.08108 -0.0520795 -2.93104e-22)
(1.18301 -0.130949 1.23254e-21)
(1.06382 -0.00736697 0)
(1.18469 -0.0149919 0)
(1.313 -0.0917009 9.09382e-21)
(1.08613 -0.0202588 -4.54377e-21)
(1.21274 -0.189598 1.01641e-20)
(1.0971 0.0469955 -2.39219e-21)
(1.45389 -0.018327 -5.54732e-20)
(0.445656 0.0262676 0)
(1.26803 -0.129882 -9.66291e-21)
(1.32479 0.112281 0)
(1.11257 0.0499742 -1.02526e-21)
(1.14246 0.0271649 0)
(1.04402 -0.010107 1.05475e-20)
(1.23239 0.0400075 1.71132e-20)
(1.13366 -0.0708271 0)
(0.0474097 -0.0305736 1.51543e-19)
(0.883684 -0.214815 -7.29063e-20)
(1.3391 -0.00157479 -3.63419e-20)
(-0.101552 -0.0870364 4.05307e-20)
(1.1926 0.0375811 4.72845e-22)
(0.862333 -0.0586784 -1.57834e-21)
(-0.0986621 -0.0622849 -4.22645e-20)
(-0.0223203 -0.0125679 -2.6664e-20)
(1.01829 -0.0302324 0)
(-0.0276481 -0.033805 0)
(1.23125 0.135071 0)
(0.111814 -0.107393 0)
(1.12039 -0.0299618 0)
(0.124522 0.0267778 0)
(1.10862 0.0523327 0)
(1.15996 0.192013 0)
(1.29778 0.0882375 -3.57997e-21)
(0.571037 -0.284322 -2.10602e-20)
(-0.176655 0.0319622 0)
(1.11754 -0.108152 5.94999e-20)
(1.25111 0.0194322 1.10483e-22)
(1.38654 0.108813 0)
(-0.0377728 -0.0399708 0)
(1.1614 0.01729 5.61287e-21)
(1.17333 -0.00176768 -2.82757e-21)
(1.16584 0.386683 0)
(0.228394 -0.0929264 5.70354e-20)
(1.12077 0.0615154 8.61911e-22)
(0.225739 -0.0519009 -5.15646e-20)
(-0.0610537 0.047128 -3.25828e-20)
(-0.0323953 0.0488066 8.40923e-20)
(0.501231 0.218087 2.19337e-20)
(1.05201 -0.056605 1.48528e-21)
(1.12313 0.0555818 2.23026e-21)
(1.02325 -0.00789844 0)
(1.07079 -0.0729348 -1.99614e-20)
(1.21885 0.081631 -1.47779e-20)
(-0.00925862 -0.0377534 9.82751e-20)
(0.981576 -0.0728638 -5.81407e-20)
(0.647587 -0.0725283 9.30726e-21)
(1.14625 -0.000961127 -1.89826e-21)
(0.0660902 -0.0318661 3.24653e-20)
(0.235152 -0.0392228 -4.62443e-20)
(0.373341 -0.0727835 -5.16976e-20)
(1.16976 0.0714476 4.15561e-21)
(-0.0543444 -0.0349558 0)
(0.987331 0.00521125 6.65437e-21)
(1.19452 -0.200958 -5.64115e-21)
(1.17882 -0.181201 5.43935e-21)
(1.30389 0.0154942 0)
(1.51834 -0.238298 7.07092e-20)
(1.09676 0.0228522 -1.12817e-22)
(-0.0133568 -0.0436947 -3.34217e-20)
(0.287795 0.060301 0)
(0.904671 0.00461955 1.35841e-21)
(1.12642 0.0286565 -1.6877e-21)
(0.555054 0.0184937 1.76941e-20)
(1.16674 0.0165069 -1.8042e-21)
(1.11656 0.0521361 0)
(1.12754 -0.177416 -1.42842e-20)
(-0.06477 -0.118236 -6.56835e-20)
(1.32591 -0.0210806 2.78099e-20)
(1.10352 0.17543 -8.88841e-21)
(1.10631 0.0512776 2.73593e-21)
(-0.0390328 -0.0572683 1.50333e-20)
(-0.0247134 0.0297627 -6.33649e-20)
(0.80273 0.0226972 0)
(0.860909 0.232576 0)
(1.1504 0.0991759 -1.31793e-20)
(1.05157 0.0698065 1.08998e-20)
(1.08428 -0.0103221 0)
(0.501818 -0.0877076 5.33832e-20)
(0.732563 0.0815847 -1.16458e-20)
(1.09748 0.107351 0)
(1.09247 0.0455229 0)
(1.36688 0.175212 0)
(1.14892 0.0535097 0)
(1.22775 0.0743584 1.54276e-21)
(-0.0430048 0.0456109 3.55865e-20)
(1.14612 0.0209655 3.97423e-21)
(1.40623 -0.211167 -8.14303e-20)
(1.25166 0.0838002 -2.37277e-21)
(-0.0583459 0.0398057 0)
(1.16018 -0.189135 0)
(0.678644 0.000697584 4.72567e-22)
(0.537271 0.00755288 -5.98182e-20)
(0.0737684 0.035176 4.84727e-20)
(0.95996 -0.0121286 -1.75992e-22)
(0.7329 -0.271802 0)
(0.663488 -0.0926267 0)
(1.18557 0.0777183 0)
(0.538638 0.511654 2.18782e-20)
(-0.0159694 0.00817511 -2.95992e-20)
(1.11021 0.00530376 -4.46293e-22)
(-0.0197528 -0.0775132 6.32544e-20)
(1.11963 -0.0275792 1.39538e-21)
(1.17122 0.313136 3.35334e-20)
(1.1164 -0.0920021 6.79852e-21)
(0.205912 -0.0362201 7.07933e-20)
(1.06007 -0.0021017 2.0925e-21)
(1.14355 -0.16663 0)
(0.558345 0.270475 0)
(0.976301 -0.0532267 1.3082e-21)
(-0.177725 -0.0218247 0)
(0.602891 0.0293833 5.25895e-22)
(0.600571 -0.416053 -3.0714e-21)
(0.240514 0.0487322 -1.12975e-19)
(1.12252 -0.231113 3.05821e-20)
(1.03699 0.361833 9.84918e-21)
(0.977953 0.0182956 0)
(1.18762 -0.0351351 1.07656e-22)
(0.682631 -0.00159007 0)
(0.978293 0.0100717 -4.78759e-22)
(0.417613 -0.0237483 0)
(0.710601 0.12733 0)
(1.00244 -0.0194072 -8.60646e-22)
(1.43318 0.170915 -1.45684e-20)
(1.11738 -0.0302902 1.00713e-21)
(0.520559 -0.490919 0)
(1.13419 -0.158725 1.65784e-21)
(0.802054 0.374884 6.94335e-20)
(-0.0366367 0.0221266 1.18565e-21)
(1.22869 -0.0038444 1.16905e-20)
(1.21667 0.0434529 -1.33599e-20)
(1.15894 -0.0134576 5.40469e-22)
(0.78968 0.00171508 1.17588e-21)
(0.0655118 0.0178573 3.7908e-20)
(-0.0168432 -0.0551029 -5.50575e-20)
(-0.187567 -0.0215935 0)
(-0.226102 0.118519 0)
(1.18103 -0.617312 3.14659e-20)
(1.15891 -0.0258115 1.59543e-21)
(0.880818 -0.463461 -4.23699e-20)
(0.978498 0.0049277 -1.42525e-20)
(1.36199 0.197313 3.48178e-20)
(0.60236 0.419056 0)
(0.245451 0.412897 -1.13968e-19)
(0.593717 0.476867 0)
(-0.0317395 0.0249241 0)
(1.12225 -0.48375 0)
(-0.0463248 -0.0236142 -3.66694e-22)
(1.20052 -0.00846604 0)
(0.888761 0.249224 -2.11093e-20)
(0.592526 0.688929 2.03001e-20)
(1.27439 0.170677 4.44159e-21)
(-0.0319489 -0.116021 -1.05201e-19)
(0.632556 0.156879 9.99271e-21)
(0.452279 0.143988 -1.35674e-20)
(1.20341 0.0973012 0)
(1.35672 0.353874 3.69289e-20)
(1.21917 0.562804 8.4978e-21)
(0.164954 -0.0154461 -2.27499e-20)
(1.00188 0.118903 3.27772e-20)
(0.92427 0.00306053 -9.52481e-24)
(0.909675 -0.00701096 1.4962e-22)
(-0.0141196 -0.0352551 0)
(0.645949 -0.65455 -3.00028e-20)
(0.61262 0.197882 0)
(0.0753325 -0.142111 0)
(-0.0482184 0.0530266 0)
(0.00829806 -0.14058 -3.98393e-20)
(1.23864 0.0055656 -1.34144e-20)
(-0.0306134 0.0411071 0)
(-0.033519 0.0298773 0)
(1.44638 0.115179 -7.39687e-20)
(-0.0380697 -0.0847933 4.75355e-20)
(0.114398 0.232205 -1.00299e-19)
(0.391168 0.0151345 0)
(0.169061 -0.279477 8.06087e-20)
(1.0726 -0.242727 0)
(0.99715 -0.287339 0)
(0.00720271 -0.115737 9.93047e-20)
(1.14965 0.0406388 1.55995e-23)
(1.12417 0.340414 2.68415e-20)
(0.265007 0.0270443 4.67033e-20)
(0.402663 -0.516986 -3.68398e-20)
(1.26995 0.0772805 0)
(1.21609 0.190079 2.24302e-20)
(1.21662 0.209474 -2.75517e-20)
(0.102176 0.0861602 -2.3249e-20)
(-0.0638374 -0.0594714 0)
(1.07126 -0.0581866 -1.9576e-20)
(1.10215 -0.226806 -1.50511e-20)
(0.58194 -0.406556 0)
(1.09721 -0.152739 -2.52002e-20)
(-0.154693 0.0893805 0)
(0.593502 0.0346171 0)
(1.45885 0.0475242 4.85014e-20)
(0.991954 0.0189976 -7.35502e-23)
(1.07362 0.740435 -1.55235e-20)
(0.224947 -0.378994 1.3057e-19)
(1.08439 0.0197211 7.71299e-22)
(1.20543 0.0761462 1.30936e-21)
(-0.0496565 0.0305018 3.02156e-20)
(0.784711 0.730269 2.76735e-20)
(1.34751 -0.379427 -1.28471e-20)
(-0.0923947 -0.0933311 9.10035e-20)
(1.10011 0.0503616 0)
(0.135886 -0.0427529 -7.18861e-21)
(0.893244 -0.633983 2.77023e-21)
(0.897911 0.639554 -1.98596e-20)
(0.52636 -0.0406093 -6.0216e-20)
(1.1508 -0.00280984 3.00713e-21)
(1.07767 -0.085771 6.22604e-21)
(1.14537 0.0565269 -2.02625e-21)
(1.10465 0.121487 2.99337e-21)
(1.13183 -0.132783 0)
(0.905936 0.106736 1.47212e-20)
(0.885471 0.457687 0)
(1.22417 0.0985253 1.26788e-21)
(1.16666 0.114891 -1.61539e-21)
(0.751787 0.263458 0)
(0.521586 0.109479 1.07758e-19)
(0.890637 0.708999 -9.85999e-22)
(1.07673 0.289855 -2.06139e-20)
(1.04226 -0.0114115 1.07076e-20)
(0.414054 0.487588 0)
(1.29399 -0.479546 0)
(0.523449 -0.0478411 4.57963e-21)
(1.26077 0.501535 0)
(-0.0224902 0.0489799 -4.34637e-20)
(1.28168 -0.420391 -7.89348e-21)
(1.16198 0.506858 0)
(0.451904 0.213703 1.67915e-19)
(1.12132 0.314515 -1.20379e-19)
(0.81444 -0.642667 -2.58118e-20)
(1.15117 0.0575226 -4.49368e-21)
(0.914646 0.150012 8.16199e-20)
(1.08802 0.168757 4.84079e-20)
(1.06791 0.70098 2.1512e-22)
(0.902933 -0.440071 6.47761e-20)
(1.41832 0.185725 4.07347e-20)
(1.13132 0.0111314 1.05563e-22)
(-0.00487852 -0.0594101 8.74113e-20)
(1.07897 -0.703588 2.5308e-20)
(0.869197 -0.720625 5.31564e-20)
(0.25092 -0.335584 0)
(0.972209 -0.148218 7.17306e-20)
(0.361319 0.303824 -4.35917e-19)
(-0.085785 -0.0329927 2.43566e-20)
(0.243577 0.0325795 2.27856e-20)
(0.657268 -0.061769 -7.12528e-20)
(1.07633 0.526289 0)
(0.99219 0.221782 7.78437e-20)
(1.08806 0.0321608 2.79841e-21)
(0.907172 0.439419 -8.95217e-20)
(0.778336 -0.723963 -8.3906e-21)
(0.925405 0.0216897 -4.84938e-20)
(0.974951 0.486712 0)
(1.12101 0.148536 -1.07866e-20)
(1.37799 -0.520423 1.28038e-20)
(1.22756 -0.346255 8.78522e-21)
(-0.300921 0.0588571 3.31209e-20)
(0.19403 -0.000237608 -1.80291e-20)
(0.975259 -0.119255 -5.75926e-20)
(0.351321 0.521765 0)
(0.913272 0.0152207 3.86388e-20)
(1.1537 0.633856 8.00957e-20)
(-0.0461578 -0.104022 1.40131e-19)
(-0.0692074 -0.00150216 -2.50387e-20)
(-0.0741174 -0.121559 4.04185e-20)
(1.09751 0.0260586 -3.65639e-21)
(1.12222 -0.462066 0)
(1.06531 -0.73735 -4.23147e-20)
(0.696886 0.34646 0)
(0.0431177 -0.11008 -1.01012e-19)
(1.08469 0.0139816 -6.84007e-22)
(-0.0327578 -0.111446 -2.84924e-20)
(1.04698 0.0566982 -1.21203e-20)
(0.108942 0.0288477 5.63796e-20)
(0.845111 0.124454 0)
(1.39553 -0.0257774 5.42261e-20)
(0.0379029 0.0267432 -2.58722e-20)
(-0.272639 0.0416758 -3.93227e-20)
(-0.209003 0.0164251 0)
(0.0688673 -0.0181947 0)
(1.35374 -0.00805302 -1.55572e-20)
(0.363146 -0.0137511 1.46813e-19)
(1.26305 -0.729508 -2.13009e-20)
(0.850226 -0.0840051 2.41943e-20)
(1.07142 0.250925 -2.85459e-20)
(0.367194 -0.558787 1.38949e-19)
(1.53792 0.278247 -3.48478e-20)
(0.0587733 -0.0842955 3.38103e-20)
(0.207505 0.301409 1.94499e-19)
(0.0797921 -0.0523769 -1.26807e-19)
(0.942067 -0.495617 -4.3094e-20)
(1.4483 0.385787 3.56464e-20)
(0.565131 -0.676101 4.86207e-20)
(1.10894 -0.0850379 -6.28182e-21)
(0.193413 -0.0370243 5.478e-20)
(1.17811 0.288729 -4.8197e-20)
(0.659908 0.636348 -4.02572e-20)
(1.33088 -0.626321 0)
(1.41237 0.516774 3.38425e-20)
(1.05219 -0.531347 -1.2353e-20)
(1.38357 0.603688 -1.00861e-19)
(1.17844 0.0398435 0)
(-0.0522728 0.0561421 0)
(1.24677 0.726236 0)
(1.14224 0.0466376 -4.80246e-21)
(0.740448 -0.303864 -2.05419e-19)
(0.475251 -0.0861601 0)
(-0.0574748 0.0447647 -2.56142e-20)
(1.02007 -0.248706 9.6663e-20)
(-0.359628 0.0258842 0)
(0.32088 0.0219 1.21803e-20)
(1.13701 0.0437695 0)
(1.40846 0.272249 0)
(1.18408 0.0528256 4.81186e-21)
(0.360565 -0.295106 0)
(1.01472 0.150861 3.60113e-20)
(1.30359 0.284787 0)
(-0.0962331 0.00310641 -5.5816e-22)
(0.81181 -0.398768 0)
(1.5083 0.337777 -5.29791e-20)
(1.23837 0.366082 -6.93514e-22)
(0.837754 0.642105 -9.70006e-21)
(1.01118 0.159015 -8.59324e-20)
(0.969682 -0.206249 -4.72996e-20)
(1.44596 0.293149 3.1141e-20)
(0.987658 0.0840648 0)
(0.563176 -0.0737652 0)
)
;

boundaryField
{
    FrontBack
    {
        type            empty;
    }
    Top
    {
        type            noSlip;
    }
    In
    {
        type            fixedValue;
        value           uniform (1 0 0);
    }
    Bottom
    {
        type            noSlip;
    }
    Out
    {
        type            zeroGradient;
    }
    circle
    {
        type            noSlip;
    }
}


// ************************************************************************* //
