/*--------------------------------*- C++ -*----------------------------------*\
| =========                 |                                                 |
| \\      /  F ield         | OpenFOAM: The Open Source CFD Toolbox           |
|  \\    /   O peration     | Version:  2412                                  |
|   \\  /    A nd           | Website:  www.openfoam.com                      |
|    \\/     M anipulation  |                                                 |
\*---------------------------------------------------------------------------*/
FoamFile
{
    version     2.0;
    format      ascii;
    arch        "LSB;label=32;scalar=64";
    class       surfaceScalarField;
    location    "576";
    object      phi;
}
// * * * * * * * * * * * * * * * * * * * * * * * * * * * * * * * * * * * * * //

dimensions      [0 3 -1 0 0 0 0];

oriented        oriented;

internalField   nonuniform List<scalar> 
1171
(
-0.9278964888748708
0.9278964888797521
0.7873429819412726
-1.099077989189481
0.3117350077794463
-0.1911591568911331
-0.7672633878511643
0.9584225442879302
0.07210351226440845
-0.1177492297871043
-0.2122373228863485
0.3299865507490595
-0.7873429753924585
0.06931652629134016
0.7180264491170799
0.810879654609605
-0.1777962931697455
-0.633083361766275
0.873948093909425
-1.043906036110426
0.1699579422346608
-0.2851140392872928
-0.0983244877991953
0.383438527445441
-0.0365250762132391
0.54873586332128
-0.5122107871745426
-0.5088442648859661
0.8288418620117143
-0.3199975965063614
-0.4028632614863905
1.045573040722971
-0.1716249454841756
0.3931638676290353
0.05077351474343407
-0.4439373850204354
1.046066565804355
-0.0004935237730234823
0.4455302468554768
-0.05236638429016749
1.056517664183796
-0.01045109716010208
0.5804238067268878
-0.7715829593172548
-0.7240340443710466
0.5566701268516454
0.1673639173768982
0.2140750121714826
-0.7229192816249526
0.5496991161726285
-0.9224366918534762
0.3727375746557074
-1.094229126883292
0.6866221564351415
0.4076069704764342
-0.5955239914242909
0.5589989244123436
0.01708388428827464
-0.2555938086378242
0.2385099243099456
-0.0227209527090499
-0.524879138550944
0.5476000879564874
0.4001114215443983
-0.4984359042497143
-0.9189193167134638
0.9416980787813005
-0.02277876192799038
1.067870652748579
-0.01135298817875319
0.9349943126231428
-1.116796705994738
0.1818023931935153
1.067385898838738
0.000484754275016525
-0.6643080179337991
-0.05972602263496649
1.262080320927973
-0.8644279448334139
-0.3976523761534976
0.1484665830304767
-0.1099626854359499
-0.3252109130867129
0.4351735989436428
-0.2855045507205301
0.1920443210583
0.09346022984788616
-0.5836038246303537
-0.5154741670576776
1.014134487703968
-0.07914017738406404
0.009868758702077799
0.8255001058480675
-0.8353688643864314
0.5716831996655801
0.6903971221853422
0.438773182706471
-0.0311564925662675
0.4312679129806547
-0.8080425445401148
-0.1025814941188866
0.9106240384645067
0.5022686158780004
0.2541316844170039
-0.7564003001805708
0.005546672393162293
0.5309092147660706
-0.5364558893159085
-0.4900203622696693
-0.6042087599580858
-0.4227955389378295
-0.6940011689046346
-0.02744958449896598
0.2708726503753608
-0.2434230645656828
-0.9248677687982271
-0.00516143646626821
0.930029205413501
0.3081918641606546
0.07524666407196022
0.7616326541661962
0.049246997478986
-0.5329036877714611
-0.06262030455912374
0.04605743899763172
-0.8540999792778596
0.07705190438065863
0.8624875170335861
-0.9395394212830854
-0.3469950317521727
-0.04059129502905499
0.3875863279221281
-0.6821940512434452
-0.2426737105684489
-0.6339919481558488
0.7110438536669548
0.613521276271913
0.2153205806168091
-0.543367270588952
0.945819944533112
-0.7789924097434081
-0.1668275345902845
0.01194930455659388
-0.004912663058938092
-0.007036641911881974
-0.403400818060766
-0.09503508599420192
-0.2416111212637883
0.855132398517699
0.04867683692259974
0.3335141325932605
-0.3821909687746702
-0.4617015960376767
0.9639702080184702
0.6803967313907872
-0.7829782211003637
0.3184022664016925
-0.01470458582187301
-0.3036976765909701
0.9307021626504942
-0.9307021626137989
-0.7816991981924627
0.1114508341702014
-0.3236881517947598
-0.7499511986871986
0.7598199620816304
-0.09117234438179374
-0.1430433205564094
0.2342156664958376
0.8648643027660221
-0.03936418975745368
1.054613396730171
-0.8004817175634605
0.1867523811604826
-0.3164271846464763
0.1296748026259087
0.8583729742164508
-0.09674032260600181
-0.6113376744989386
-0.03929137316555869
0.6506290477658392
0.1234553581256867
-0.2303636059591863
0.1069082468632422
0.8055267420499946
-0.9833230392607403
-0.4341238043429042
0.329028102837504
0.1050957000156167
0.5336018300774691
-0.556322779816329
1.021988760094413
-0.4562462562702372
-0.5657425036860882
0.5991932229273393
-0.7192722926761346
0.06644567657734135
0.6528266162539791
0.1019726705408239
0.5696874983978791
0.05501681534447386
-0.6247043139827868
0.1949953577032939
-0.08354453465254622
-0.4920633113887877
0.1450682793375189
0.05028484569141774
-0.8864538234528854
0.8361689776373196
-0.4741056111909665
-0.7131694598938962
0.04886144135758472
0.4368465195566873
-0.005578601340425962
0.3001113827737363
-0.8553054618073612
0.5551940790362253
0.4157604506138291
0.5842395491775293
0.5606016369381731
-0.514544197227752
-0.3670791130124794
0.03980670465767927
0.3272724136035247
0.6812563946685429
0.2494457669125568
-0.5676680904860765
0.5732147609209801
0.1116356134897293
0.8748432631555815
0.01026433561621456
-0.6216020091439157
-0.7490763732323323
0.7993612177673406
0.5303961299077902
0.07074769528710464
0.3004466609951562
-0.3711943568139084
-0.1674778154864162
0.4452940155196826
0.08561521749215729
0.8737769791163003
-0.8040225089542367
-0.06975447013763611
0.635436436119535
0.3103835088191718
-0.4308504035137908
0.5740691886205801
-0.5033214905426323
0.4170399218323407
0.1326591973897509
-0.04675760949084683
-0.5909271359522218
-0.1394684304134206
0.7303955662379947
-0.1497065457475536
-0.7809956147515935
-0.6110488852006279
0.3601455943713253
0.2509032922414435
0.6219881262999202
-0.6117237898243261
0.2388142031152044
1.011690931011083
0.04292246556091404
-0.7490763777405226
0.225566855196863
-0.2136175568154608
0.6803967336020652
0.8018702397914599
-0.8018702396059757
0.8375923840820028
-0.8330808271896951
-0.004511556930991839
-0.4453351933010328
0.8610956501239657
-0.1473717075787903
-0.3446916009848739
0.7347715237402856
-0.668578588703003
-0.0661929349951292
-0.7362437512430665
0.1453166131211531
0.1391626207393943
-0.6720663097575832
0.7829782226336798
-0.9504560380762952
-0.3673819845692353
0.286469672591026
0.08091231875088245
0.1456970638454131
-1.010056383916247
0.8643593200231097
0.4807056929647876
-0.0419325101617032
-0.3080646500377494
0.5862234285716557
-0.278158778785971
-0.7385701318502595
0.8842671970169469
-0.157004282629864
0.7320935427746851
-0.8376946049094746
0.1056010626993372
0.977248630583468
-0.5393367560496376
-0.4379118742992056
0.7551126254682833
-0.06493188157717904
-0.03516687483083328
0.1850094092686284
-0.1498425351426657
-0.7757897687645088
-0.8391182971374643
0.07185491336797503
-0.7499511959857678
0.5138817119356359
-0.5544730036871592
0.0993251665989565
0.7160371033997099
-0.8153622701169764
0.7535879424544228
0.1743085311349296
0.5029301659800434
0.497069834050483
-0.05478111647512508
-0.6106246042375701
0.6654057184970076
0.8796923204617605
-0.005915344702104586
-0.7551126254945159
0.7993612183004699
0.1916684832342694
-0.4472622957672644
0.01256069684207877
0.003408363143735067
-0.01596906482550045
0.5891162992031871
-0.437395406034378
-0.1517208942104993
0.7180264445178579
0.01114419233449877
-0.1070247562361644
0.4387178395586191
0.1503984586516268
-0.01544600584985625
-0.007645017797566631
0.02309102443292991
-0.03172474754031924
-0.003442121256532718
0.2459180313991562
-0.2606226204032606
-0.9588745224908493
0.001634549600792851
-0.1595133041954716
-0.1214639410115832
0.09466035290973303
0.7223590813673536
0.7289341022148503
-0.1446945514211493
0.6719552290436699
-0.5726300626923783
-0.2119471389842034
0.3986995232333062
0.695647666472293
0.02237877810623519
0.2418224564295937
-1.074903283130779
-0.9504560354714237
0.3026132697949221
0.7598199668169779
-0.2093584927825612
0.06631517775349408
-0.7239936304263104
0.9103814897961808
-0.1863878591917809
0.4158157719134629
-0.0282294395827229
0.7712370935133975
0.2807277095861088
0.3767474275040521
0.06878281953604495
-0.6587151894135721
0.6587151894309228
0.2148054139391758
0.6958186285016662
-0.05638731766969687
0.3899014339400868
0.3787862807701808
-0.01279087300838426
0.02535159431470108
0.4483046710626584
0.03240102476319934
-0.7385701316805668
0.5339673190855216
0.2008042038703965
0.2999855146723732
-0.114976088433769
-0.6956476662379841
0.1795467134455489
0.7308347756073702
-0.01025979531573092
-0.8135850336493082
0.8238448289234602
0.6964232903061939
-0.7919447645749969
0.09552147407338497
-0.7535879380600194
-0.1510382100127186
0.2123195406367275
-0.06128133012939413
0.07756330965449319
-0.1781651667346985
-0.1132224777777747
0.2913876416444498
-0.005945363162405251
-0.009500634067687818
0.7064326329763502
-0.7166924204514641
0.8871384748528266
0.07128407218147359
-0.3141835933868214
-0.5215435760303617
0.835727169187293
0.1039246244481035
-0.1039246292673864
0.3262763800304814
0.4740441071954651
0.6142470431530163
-1.088291150123466
-0.1940774627418192
-0.5855666621239608
0.7796441248211046
0.01350008641450194
0.2207155806562792
0.3761541761123742
-0.2526988226496149
1.016147602839304
-0.5421034981643852
0.6687445376211018
0.9930072581895711
-0.3787602182142085
0.2287824682510804
0.8842671982139453
0.7126422538946516
0.2139193568094032
0.7277787220505519
-0.7809956151092672
0.3412848043009348
-0.2828780142233147
0.2586590079299697
0.02421901256187442
0.8485548867333851
-0.001402500489495373
-0.8471523865878741
-0.7021911582515816
0.7026759125353282
0.5546648078523903
-0.7021911570232622
-0.7126422538447287
0.7026759138218577
-0.03406626985082937
0.9095059932525978
-0.02236751626895365
-0.6812564047183272
0.6122607747251659
0.06899563003031069
0.5384966828360859
0.5379101920977324
-1.076406875013505
0.4870405324431997
0.5291070694723294
0.5473522650802721
0.4573152576341512
-1.004667522739415
0.4922024459088594
0.5008048111434269
0.6122607815743716
-0.5256325906062257
-0.4664016181381084
-0.5564764425372754
-0.5137635116597754
-0.1216574982060874
-0.01272074520285321
0.01272074605721244
0.5108470153484671
0.5244152698500577
-1.038178781535346
0.5718966612905628
-0.271449999450811
-0.8834668427436292
0.3441300877712913
-0.6329412462292903
0.3902675375203858
0.0009336140606481129
-0.8254101423542276
0.8244765285825458
0.4208694677755302
-0.02406680820885374
0.8726216951889926
-0.9481755444223925
-0.8330081623491066
0.0549839414974284
0.7780242211565874
0.5615038400484157
-0.4394706964189675
-0.1220331440685554
0.6502760843539791
-0.7294162620556747
0.8882838044257554
-0.8273704032514141
-0.06091340079961262
-0.01442383486303113
-0.7895986773504722
-0.1110376504781287
0.712402306072726
-0.6013646556277855
-0.940513786873355
0.9260899520007368
-0.7271475640385072
0.6890026534210669
0.03814491072636169
-0.8053137669927627
0.03140905116643158
0.7739047159151889
0.0619713588388346
0.04195326855588997
0.4327705904063366
0.05989174157007496
-0.8509645800423327
0.7910728384757327
-0.6462140058149218
0.5914328959165442
0.8882064906659093
0.07338920386410649
-0.9615956942860815
0.0551983319972719
-0.05016383290864909
0.3774362553192263
-0.3819879879652142
0.06556080566429669
0.8407931752177102
-0.8398595596865891
-0.734029690053001
-0.8162861356988459
0.02668745881984825
-0.1653305764166453
-0.8493883165626355
0.02201791184011199
0.6215465024324597
0.05040872772802479
0.02625418563323814
0.5352496609459784
-0.8143599818127124
0.8457690360328169
0.5657425037063127
-0.8494769483083434
-0.8671245806213125
0.04238141738194056
-0.02682787657149463
0.8346961860980371
-0.8078683094065872
-0.02491178632620289
-0.7608575658267533
0.544289345966622
0.152133954731053
-0.02033620562299818
0.8929579011927128
0.9810738958646676
0.862317566357319
-0.8402996535459241
0.1479623350526133
-0.1479623351456683
-0.1176049312551655
-0.4674067384098417
0.02793604286013966
0.2705553660584362
0.03205790412200267
0.3878916326373393
0.8680461158944052
0.009521861822334055
-0.0154672269248478
0.6585826365358135
0.3414173634658538
0.7836578874291789
-0.5836038260953118
-0.7781029378534055
-0.8092708079440212
-0.679897152471992
0.6798971525160185
-0.1682215748862427
-0.1554665800276298
0.6023553560398539
-0.8115220090782641
0.2091666530857054
-0.4940862834066167
-0.5688747215612431
0.2779765733462393
-0.9719777423499878
-0.8993111681244751
0.8383977653428366
-0.8145039822075796
0.8411914421936358
0.6485798716127432
0.1342016346957826
-0.7827815063647182
-0.7711258978215844
-0.1464659175813965
0.725007431361681
-0.578541513957019
0.03126505417212252
-0.01166252211248128
0.01581615911832783
-0.004153636541766686
-0.3529694141901724
-0.1144373163337356
0.8803319315815996
0.7459388311959225
-0.2434727744629799
-0.5024660581355778
0.6239056977190116
0.6857829032076824
-0.4709774881982879
0.0001163356531614455
-0.2856208826524485
0.01229895060517157
0.7513400445661207
-0.7636389946980812
-0.3233978689986106
-0.07299924727062426
0.07648630570317604
-0.966951633420792
0.1197992471889334
-0.677320370979772
0.05384802470029836
0.6396433027664004
-0.6934913275502694
-0.7560166342665018
0.07869626334306808
0.5887756650805563
-0.6617749122737525
0.1573728190170603
-0.3355379812156622
-0.7714169049250981
0.0002910069824609699
0.3710752864374022
0.5997218206224736
-0.02565263005721412
0.01888522258951396
-0.0188852206550628
-0.02036575946209387
-0.04912511594750069
-0.2337529033194873
0.02782377105433263
-0.01830191762236038
-0.7210081753064569
0.2792976413496658
0.6797265329416796
-0.6888902924401554
0.00916375970788463
-0.593893905974519
0.6477419260307307
0.6543680632490723
-0.0655923930583074
-0.6305950638075627
-0.1254215764632599
-1.050562724380428
0.01109636897299283
0.136865965150941
-0.7087092241431172
-0.7416327254354387
-0.7637734412134625
0.3661210657676793
-0.4057783015795432
0.4605020932493898
-0.05472378975954084
-0.6631986747992692
-0.04551054930315569
0.500932101877606
0.7306861577008849
-0.2360051885211728
0.1145412450443396
0.9666606256880929
0.4468249863296985
0.1323968161199471
-0.5792218026004482
-0.6765337858050989
0.01333511259053667
-0.04459797167682419
0.0329354559285002
0.636621230157706
-0.7760896601237193
-0.001963800091286974
0.001963801060763944
-0.600871963251269
0.6494903318064679
-0.0486183691286405
-0.6502796029194473
-0.1134973511810207
-0.6715880382130924
0.06096109347521249
0.6044446247410943
-0.1375381140224041
-0.8180539542408767
-0.5734438156957293
0.5698015738040697
0.003642238606876181
0.6282502483903588
-0.6190864955988141
0.3225577292313387
0.2136781856273192
-0.5362359148106047
-0.1050114920666364
-0.6015672584225027
-0.09192407166249414
-0.1540469735747386
-0.5124827169218832
0.4042046564964361
-0.4992397444605904
0.1265993173633578
0.6786207657133777
-0.8052200828046736
0.5991932229373476
-0.3693248901984935
-0.03645340948798059
0.0745516009903949
-0.5870343293809578
0.551368341239179
-0.04057435991354189
-0.510793981273025
-0.3132151070958923
0.3058233673788655
0.007391739191017495
0.4528730397300403
0.1190236236876508
0.05280080703140223
-0.3166219964892474
0.1576380831037349
0.1589839133549086
0.235703925022082
-0.01013706411494246
-0.2936236689542076
-0.3102555338340683
0.3493271717508186
-0.03907164077398183
0.7885437871550891
-0.6261912259102127
-0.0240883781330381
0.4992728995360871
0.2844476842585762
-0.5279204511966726
0.5774763509358585
-0.5774763509319826
-0.2897545483662053
-0.5864661581116785
-0.2955771268481842
-0.5864661579202051
-0.5954746232359781
-0.838487175690546
0.1699085834078628
-0.5982551681302313
0.8211289716627336
-0.003104663807730621
0.117487802077413
0.4822340188901346
0.09679290809838387
0.1861002081146107
-0.03646328630517086
-0.1496369189878213
-0.0284536016166079
0.5907448003315156
-0.9433988274035685
0.4218552501986767
-0.008588056845541233
0.003411947549318426
0.005176112405896082
-0.6441339054627964
-0.1319906128682487
-0.468199257951611
0.6005960748152792
-0.5034838647363433
-0.3243622353815002
-0.26267207632204
-0.2716397796360859
-0.1114322209649945
0.111432219744541
0.1532322058856805
0.05908733847792168
0.1971965756477393
0.4503650126839829
-0.5703608501729136
0.1021615901750301
0.2500709670658356
0.4665144349310905
0.5334855659354139
0.6442336968132676
0.08713158644026373
-0.003215932459698136
-0.08391564196300948
-0.27713737309093
-0.5409165814992228
-0.549563984214246
0.114900936745682
-0.1267223198295803
0.0118213833856365
-0.1054426189865245
-0.3852659591650157
-0.05033979094261076
0.6547844358826727
-0.4992675713167942
-0.1448663340341127
-0.3292749006639975
0.2871946240592734
0.1290309013569447
-0.6181406110222361
-0.2046848627366858
-0.2631366739494864
0.00251406340734982
-0.4214677185652744
0.3237071512523719
0.09776056828231583
-0.09466903694927968
0.2917408483617067
-0.895949607256185
-0.4573403931421079
0.6263308362312475
-0.7732811262533408
0.6682696342065464
0.3397376071845754
-0.1241864154720567
0.2236781256523511
-0.09949171121300143
0.02865543041576695
-0.5862501244569105
0.02872705935028376
0.5575230647061393
-0.9005947485095622
0.5479614695219637
-0.6655664004815965
-0.1050010644376912
0.1098272981750784
-0.1098273014640822
-0.3165056586463719
0.3586067624513442
0.01882948716433411
0.02706640031202809
0.06006519088864118
0.5047435007633995
0.6664359042240194
-0.7361903764792767
0.03047473746296279
0.02022839213460956
-0.00134318982405235
-0.006936087115218949
0.006936086783874257
-0.4121635520220793
0.531187178873209
0.0158172940871226
-0.01581729388195672
-0.7926115406389227
-0.06100730701959296
0.1229786654145701
-0.4556139709452239
0.5577755641430037
0.4517960653512937
-0.5004144298715205
0.1503409840317056
-0.1503409832998418
0.03509075035708664
-0.009739163293324219
-0.04242109322051916
-0.975158551128438
0.5372466789332581
-0.4668873466943633
0.04195326648328734
0.5151732864871783
0.03060806876910715
-0.5457813556631509
-0.6165391866774
0.1172716186541582
-0.3289797416010987
0.01356112401952007
0.315418617757452
-0.1557462714153278
-0.08025891147791539
-0.5410533698508982
-0.04519674420266593
0.1368659624961236
-0.04013475851208666
0.03817095124934947
0.08060954152801525
-0.08060953596602918
-0.5259382428346767
0.4868665922646981
-0.4149525373913546
0.1613068224346421
0.6223510650752465
-0.09698778128856572
-0.003069025786711245
0.003069025059763235
0.5329601083554137
-0.08289094953070959
0.005902672687548215
0.02703866666850644
0.03501718035970307
0.6863313662399418
-0.7692223161720148
-0.6549862726101726
0.6308979012850563
-0.1082805514489223
0.3140608711687268
0.7455954555004419
-0.02036575705222629
-0.2654992715364838
0.1505231866737899
-0.7445893900790352
0.4838015150870121
-0.4280026768313758
-0.101365884347308
0.003235982045964142
-0.01436313193977937
0.02460784887513589
0.4111873072694159
-0.1215232305969124
-0.3892707506192305
0.6289054475170535
0.01965684038223377
0.009327431740903936
-0.009327430695300341
-0.3504953955399455
-0.07557321625058902
-0.5602216970698287
0.5571170328469247
-0.2374088781580147
0.4647002114346488
-0.1509156763375963
0.7313394854197574
0.6694410574119625
-0.04013475750721478
-0.6178421369110022
0.5624163013812715
0.2837707384637676
-0.2787093744188147
-0.005061361218876688
0.5362288700943683
0.09343099481643807
-0.03895998468555802
0.1958732136198091
-0.1569132280109891
0.1195695252730749
-0.1195695222534938
-0.8586292684509709
0.002378648653207803
-0.1136520392500104
0.1406907044864064
-0.1314562792028172
0.131456277915291
0.02022840693129222
-0.02343479955454205
0.6699016151824686
0.06093316123172531
-0.3225461577775166
-0.06271979972405763
-0.4712621044758729
-0.04550416776294072
-0.1511846340528615
0.1511846330455181
-0.04882487329908188
0.1437598679463526
-0.1437598665464042
0.1360694151740195
-0.136069414028123
-0.3162240822443337
-0.1146263210812587
0.225895034586483
0.1031330681804844
0.03478443232911876
-0.8212097170830207
-0.1985454215886572
0.1698435161568229
0.02182496604977905
-0.26409487952273
0.1262783303493032
-0.1262783290847626
-0.4143437213791034
-0.08489602231601297
0.2356137402793924
0.002896182012839737
0.04047477974301326
-0.5445032837128119
0.5785695535594187
-0.0371722658699843
-0.01165260017724601
-0.02490169889748491
0.01516253462846533
0.006581116580256165
-0.1848816076044914
0.1783004915809656
-0.1084980650714689
-0.2270399117057216
-0.1442991150308797
0.1442991137022574
0.0723851371891842
-0.07238513817723126
-0.01891470246811654
-0.1085241255639342
0.1274388280673897
0.234828254284906
-0.1835403013980711
-0.02632111369596463
0.024977918674072
-0.130036779281038
0.6169033669608723
-0.03904709548354266
0.4277387964730181
-0.04289094473926471
0.06598197553299327
-0.1529052216338272
0.1529052212300155
-0.6368393253481527
0.3079952866532549
-0.07921281624730823
-0.2339883111669787
0.003624704049137807
-0.1207414534595616
0.1612162346667368
0.1956536171458471
0.09573402704184576
0.09671450886479542
-0.06169732995728364
0.07323424560958101
0.04166668693959425
0.06421557616089409
0.1056279445364542
-0.09998889302717953
0.2145301344068519
0.01129124950226134
-0.1182908027863835
-0.09989546700502082
0.09592966361077387
0.003965804137977984
0.01090096630161568
-0.02323410883874586
0.03732900315153144
-0.03732900336754808
0.07513176131143558
-0.05540680330457699
0.05540680342558908
-0.224349905843364
-0.05230882067156289
0.01174172843783045
-0.1030847107640211
0.01649989161828377
0.1088948706938572
-0.1088948700323015
0.2934141921161503
-0.2707751799239038
0.1622771155135584
-0.05095588622155664
-0.2198192911011055
-0.01680278697107965
0.01680278732362424
0.3676632335596401
0.285163379844891
-0.5281712236536532
-0.09392814495518982
-0.03279417890240874
0.528970048982259
0.2099265347561698
-0.1697652465915881
-0.3797305587087559
0.0765395815422419
-0.1471105845296839
0.1866872925850208
-0.03957670853634773
-0.06722817369577075
0.06722817441375442
0.8221350370670717
-0.560353020665823
-0.005566743397075864
0.01646771471396036
-0.02002404792752754
-0.2874571897578662
-0.01748152773340843
-0.0128428452787112
-0.1322302402422879
-0.5723433698793963
0.5561581305668351
-0.5689995108998527
-0.006885510510853429
0.1001816515810433
-0.00172059074520107
0.01683581431027635
-0.1671346329288808
-0.336032025933085
0.2329473154512379
-0.05397082612559695
0.03505612386125907
0.1321807300860546
0.1736426378345697
0.3423874637722139
0.2757712920213494
-0.2774918822948196
-0.06172452192215151
-0.1552764569374356
-0.2204271877746028
0.0744970408189832
-0.01028146564222546
0.2133942869861847
-0.1965584729308966
-0.0862688035025715
0.1595030454888956
-0.3553213224058094
0.2078691147908832
-0.1913692238482956
0.08959883952991587
-0.4788695852093536
0.1738444410551014
0.1708312984071713
-0.2571000967305023
0.0734804027100309
-0.1949713916709553
0.1774898642911421
0.01738346611435794
0.1421195808188749
-0.03958950095025278
0.06560236162316538
0.467357747255242
0.02052621464945945
-0.08629740514561285
0.053912876943432
0.1263275697616882
-0.2600038991844777
-0.2309363248582194
0.5597409305088565
0.1568708359860798
0.07874290365003375
0.07452471977020535
-0.03104222413271715
-0.006921897841602926
0.001860544643114216
-0.03262007757423234
0.1705836325954773
-0.1774691432507617
-0.0616895583528316
0.0194111958379648
-0.1472582706945183
-0.05285180223549805
0.1528405791416171
0.2770353162181005
-0.03999295244568237
0.00824063775546386
-0.2552693573905804
-0.1325677401497822
0.2363921042387275
0.1783409765974556
0.129654314013996
0.02202506537212116
0.08839173097182008
0.05243439833567641
0.4523091025460313
0.01525705926461564
0.09811618184974626
0.04290153412579763
0.07238367201075439
-0.1152852061944502
-0.2430078440850099
-0.2003660467898571
-0.01945324330974348
-0.2018342661433865
0.2747225968574418
)
;

boundaryField
{
    FrontBack
    {
        type            empty;
    }
    Top
    {
        type            calculated;
        value           uniform 0;
    }
    In
    {
        type            calculated;
        value           uniform -1;
    }
    Bottom
    {
        type            calculated;
        value           uniform 0;
    }
    Out
    {
        type            calculated;
        value           nonuniform List<scalar> 10(1.034392798517406 1.064129274033764 1.02287806067845 1.021309516107122 0.995225450491953 1.014568323060558 1.035262286064904 1.062961005063729 0.8672309037911694 0.8820432848981262);
    }
    circle
    {
        type            calculated;
        value           uniform 0;
    }
}


// ************************************************************************* //
