/*--------------------------------*- C++ -*----------------------------------*\
| =========                 |                                                 |
| \\      /  F ield         | OpenFOAM: The Open Source CFD Toolbox           |
|  \\    /   O peration     | Version:  2412                                  |
|   \\  /    A nd           | Website:  www.openfoam.com                      |
|    \\/     M anipulation  |                                                 |
\*---------------------------------------------------------------------------*/
FoamFile
{
    version     2.0;
    format      ascii;
    arch        "LSB;label=32;scalar=64";
    class       volScalarField;
    location    "1409";
    object      yPlus;
}
// * * * * * * * * * * * * * * * * * * * * * * * * * * * * * * * * * * * * * //

dimensions      [0 0 0 0 0 0 0];

internalField   uniform 0;

boundaryField
{
    FrontBack
    {
        type            empty;
    }
    Top
    {
        type            calculated;
        value           nonuniform List<scalar> 
15
(
142.2899674665437
133.5850139686504
138.0651734807117
144.4052750150645
159.7667621221127
131.3675076215902
140.1344572448832
135.3549944153844
153.4551563518135
135.7268193767954
136.0905098344485
136.7716201972254
125.2669029898405
132.9136580873227
123.955620682327
)
;
    }
    In
    {
        type            calculated;
        value           uniform 0;
    }
    Bottom
    {
        type            calculated;
        value           nonuniform List<scalar> 
15
(
155.5672230677193
158.1192395231324
141.0872440279382
142.0428098039668
141.1782331510822
148.4269559525991
142.7017408554283
143.1467021482493
143.4216481806973
134.060153149346
125.7263821690961
141.5564220566778
122.4048150862506
123.4858459769498
124.130375507752
)
;
    }
    Out
    {
        type            calculated;
        value           uniform 0;
    }
    circle
    {
        type            calculated;
        value           nonuniform List<scalar> 
32
(
56.06660798649045
22.07180073830184
65.25879564417191
24.96595863976994
19.89477403341158
56.18838817055958
56.64611428728288
23.78274660451004
22.26924724530599
65.500168433878
39.84176167751832
62.94904039605502
50.57143831237234
16.83882403497453
23.04450264509351
17.94191449146055
39.26098115011667
59.7635800968492
61.027488993905
24.64425927262071
65.76011300932301
63.79331745974172
63.05349873321533
59.90219024634037
64.12676730731219
45.96164154573879
66.42282674735954
32.06926436811882
37.98260378626932
55.73363711942292
21.06522717332555
43.13822805093584
)
;
    }
}


// ************************************************************************* //
