/*--------------------------------*- C++ -*----------------------------------*\
| =========                 |                                                 |
| \\      /  F ield         | OpenFOAM: The Open Source CFD Toolbox           |
|  \\    /   O peration     | Version:  2412                                  |
|   \\  /    A nd           | Website:  www.openfoam.com                      |
|    \\/     M anipulation  |                                                 |
\*---------------------------------------------------------------------------*/
FoamFile
{
    version     2.0;
    format      ascii;
    arch        "LSB;label=32;scalar=64";
    class       surfaceScalarField;
    location    "1423";
    object      phi;
}
// * * * * * * * * * * * * * * * * * * * * * * * * * * * * * * * * * * * * * //

dimensions      [0 3 -1 0 0 0 0];

oriented        oriented;

internalField   nonuniform List<scalar> 
1171
(
-0.9279281749001584
0.9279281748532046
0.787441516887277
-1.099203205877423
0.3117616890184712
-0.1904870416411095
-0.7649023820748033
0.9553894238401812
0.0720718169164956
-0.1168772685065569
-0.2123142864077578
0.3291915548944525
-0.7874415203928333
0.06948113329638902
0.7179603871050992
0.8117041855072996
-0.177927878362592
-0.6337763071200905
0.8742803438290258
-1.044180907155528
0.1699005633631079
-0.2854395841673567
-0.09742738926484024
0.3828669737426056
-0.03618274337999262
0.5489479394193739
-0.5127651961079934
-0.5037411107592358
0.824592533255285
-0.320851422668386
-0.4023168497751081
1.046004403357432
-0.1717240638625808
0.3927021395422912
0.04868235959780536
-0.4413844994492713
1.045993309829746
1.109194110349127e-05
0.4432855164731748
-0.05058337510266112
1.056638512653447
-0.01064520990951996
0.5790953293286611
-0.7695823654637749
-0.7242982118506794
0.5567582512548814
0.1675399605552894
0.2176603631739776
-0.7214014779415819
0.5504510338019942
-0.9228142165869583
0.372363182195013
-1.094184196215383
0.6865044219247092
0.4076797744151261
-0.5955597460363751
0.5593770047693902
0.01786019324847491
-0.2565780061610625
0.2387178117842928
-0.02324815876104376
-0.5217119007084153
0.5449600602772011
0.4004356383136509
-0.4978630220929359
-0.9189145868103605
0.9415352895485971
-0.0226207027615611
1.067543132264459
-0.01090462313012778
0.9348774196560616
-1.116673984625241
0.1817965649432613
1.067010078921165
0.0005330468531484507
-0.66446297338799
-0.05983524359261087
1.262344118884953
-0.8642364847249056
-0.3981076341434431
0.1480954854440796
-0.1094915055460086
-0.3262964630653463
0.4357879688352886
-0.2856160638551715
0.1913643854129789
0.0942516789146795
-0.5836447210365432
-0.5155584817778107
1.01402084961938
-0.07914342910391298
0.009917980712610847
0.8254718301460617
-0.8353898108589106
0.5718374793886802
0.690506639908458
0.4394564347581362
-0.0304036053989134
0.430839243953212
-0.8079154492900344
-0.1025066694717976
0.9104221187264279
0.502151360385957
0.2537648515264748
-0.7559162119614762
0.006783428906281802
0.5271653576423729
-0.5339487865233317
-0.4899250015284174
-0.6042591983798965
-0.4227794441059213
-0.693894539686695
-0.02703568071931286
0.270244286649397
-0.2432086053749704
-0.9246952982680541
-0.005064488468887995
0.929759786745044
0.308735993163633
0.07413099021799784
0.7618946190730834
0.04980956904618131
-0.5331203088126104
-0.06243943407633157
0.04608240184703036
-0.853997852745222
0.07494654952352488
0.8634583291033198
-0.9384048786501714
-0.3469151061326082
-0.04140522464480857
0.3883203305591365
-0.6820619601664623
-0.2426333382060877
-0.6334456274789065
0.708392173783941
0.6129720644229011
0.2116204657355485
-0.543168797518625
0.9457057083194534
-0.7790905051887321
-0.1666152031545238
0.01512558706841115
-0.0148141907588687
-0.0003113983514256829
-0.4033246436183996
-0.09453837758546788
-0.2407959187801553
0.8537679764818387
0.04701213063653688
0.3354222377648425
-0.382434368155009
-0.4606604944417563
0.9628118552419928
0.680363488121447
-0.7828701607765783
0.3206009138780863
-0.01744451749521773
-0.3031563974819897
0.9307334167381462
-0.9307334167316745
-0.7815119236151472
0.1105475584869622
-0.3228618411943089
-0.7499599147445104
0.7598778956136961
-0.08998882691754466
-0.1434096038943855
0.2333984310211018
0.8649768604640993
-0.03950503016313196
1.054237142731417
-0.8004722921897959
0.1863436838760104
-0.3158136973132915
0.1294700135021387
0.8590090585328418
-0.09711443721601537
-0.6116298198172407
-0.03898385428743591
0.6506136741022773
0.1236023810928023
-0.230874130668706
0.1072717486540968
0.8056687750222934
-0.9835966496488087
-0.4350556107960925
0.3295026210520282
0.1055529896148324
0.5320604754111189
-0.5553086378895218
1.02193192741439
-0.4561873464942998
-0.5657445809475264
0.5991524836756975
-0.7193864483893043
0.06680107716720796
0.6525853715728086
0.1030928478523613
0.5698559995671181
0.05536168795260157
-0.6252176875941143
0.1941869248051483
-0.08363935871533994
-0.492783970079432
0.1458688627116717
0.05025069791687738
-0.8865922028967176
0.8363415049603492
-0.473029542360186
-0.7133629152415536
0.04889994408750617
0.4372690271114096
-0.006429781714815817
0.2998694779155294
-0.8552372935730687
0.5553678154198921
0.4157352712033814
0.584264728793714
0.560455567108058
-0.5143731703344026
-0.3676130427730635
0.03683948459950243
0.3307735593309615
0.6813374110977918
0.2493960056025967
-0.5657628228519883
0.5725462563921679
0.1109725575814187
0.8751499112821253
0.01015761815580924
-0.6217874396721992
-0.7491704061656114
0.7994211015072376
0.5308721428570496
0.06988013474979513
0.3022308728110572
-0.3721110076067483
-0.1674934359924627
0.4429782150447566
0.08418714046465584
0.8760911602547903
-0.8026495444995346
-0.0734416158434065
0.6352858572047377
0.310419847248477
-0.4303603284606366
0.5741213332509546
-0.5042412033484606
0.4171954201911227
0.1332556050229454
-0.04677610836349085
-0.5940672083160099
-0.137588033269855
0.7316552416234686
-0.1497843661925146
-0.7809490494551017
-0.6109804090922208
0.3605968782720726
0.2503835315813964
0.622018356548475
-0.6118607412276552
0.2392027322116
1.01125226090131
0.042984883100372
-0.7491704057518104
0.2343891165209403
-0.2192635212404971
0.6803634873626406
0.8018005130319902
-0.8018005130272592
0.8376922676392223
-0.8331990299638441
-0.004493237738542645
-0.4453772089344898
0.8611124806124735
-0.1473571685730423
-0.3454267996777515
0.7347134472601136
-0.6684882274151445
-0.06622521978657284
-0.7337777252758459
0.1397105189924066
0.138820906376507
-0.6719412154313811
0.7828701655817694
-0.9503636015254747
-0.3682537128487964
0.2915703193482142
0.07668339292238117
0.1458993342899941
-1.009893437658953
0.8639941033461801
0.4813204688145972
-0.04186403400263064
-0.3081460002306654
0.5864364149352003
-0.2782904147762854
-0.7385084578227634
0.8844077922091859
-0.1570721551120852
0.7317424388266192
-0.8438912908425682
0.1121488518117801
0.9761113275476279
-0.5402410076691113
-0.4358703198785105
0.755024403736832
-0.06502918866944447
-0.03184931733028852
0.1856381596772629
-0.1537888416515985
-0.7758023504943531
-0.8432058656311002
0.07830348923745027
-0.7499599147714785
0.5136709471855355
-0.55507617036239
0.09671423185791435
0.7193702546806846
-0.8160844866297096
0.7536636536163004
0.1742645139528209
0.502908491369958
0.4970915086458136
-0.05010880996497659
-0.6114498317210976
0.661558641764225
0.8844418844352029
-0.008350725928736728
-0.7550244037446012
0.7994210993879152
0.1912657739653934
-0.447843780904897
0.01726896776689012
0.003321107072224336
-0.02059007751878933
0.5885163229488259
-0.4379088356772863
-0.1506074874498286
0.7179603883754221
0.01101127140051682
-0.1114634256990838
0.4373356637904908
0.1511806557820774
-0.01616767517981251
-0.005721705149317685
0.02188938055043148
-0.03130714452748683
-0.0005421666524065662
0.2443734958275101
-0.2618180282770863
-0.9588726701083111
0.001358823924919238
-0.1594515707121028
-0.1238802243694977
0.09436997377369631
0.7220159335852177
0.7290274379504369
-0.144762707239623
0.6713632010042242
-0.5746489655985897
-0.2117312874169145
0.398074966721234
0.695523571639773
0.02243681673955986
0.2417405515640367
-1.074939587229613
-0.9503636023527463
0.3023062022223745
0.7598778949411295
-0.2088968994915549
0.06548729218194815
-0.7233747557228765
0.9110349914308915
-0.1876602357662689
0.4156183131979868
-0.02729797889587365
0.7713123137660192
0.2806135440190866
0.3738109328118996
0.0694745931261065
-0.6586957060309911
0.6586957060503933
0.2146021811138643
0.6958199339774661
-0.05580183998810119
0.3912240812133023
0.3799861243832705
-0.01586742039717643
0.0331363893703253
0.4488795127095083
0.03244095731229615
-0.7385084581578398
0.5340618021599474
0.2006516402195648
0.3033692313296554
-0.1177310860194797
-0.6955235731765709
0.1801868099413072
0.7308481816163789
-0.0101368232354393
-0.813712868645117
0.8238496919079579
0.6963307944930127
-0.7920689251556798
0.09573813066582311
-0.7536636485928375
-0.1496333615493196
0.2110676424874243
-0.06143428019895432
0.07718578287989059
-0.1795648036688471
-0.1117401271548489
0.2913049306537486
-0.009997235858270703
-0.006170433312503202
0.7062991303253561
-0.716435949467748
0.8857145292107454
0.06967490014912223
-0.3097827943180989
-0.5224232070232381
0.8322060015746401
0.1026057876990229
-0.1026057887908373
0.3284097970393298
0.4793513408049102
0.6078279407644264
-1.087179281712674
-0.1941333138549582
-0.5855620434627739
0.7796953573135027
0.01209971895433772
0.2212987044460494
0.3768519719161015
-0.2532495993149306
1.014177344891896
-0.5348260065700404
0.6661077413201583
0.9926332113732178
-0.3848052724389777
0.2294948076893313
0.8844077931074036
0.7126837257735638
0.21375833979555
0.7277769452856894
-0.7809490494531269
0.3413042916956592
-0.2827621699827365
0.2550265980796671
0.02773557085295249
0.8520538511552125
-0.01287923191289047
-0.8391746193679653
-0.7020385088442943
0.7025715525416918
0.5546227918653135
-0.7020385119482768
-0.7126837257831793
0.7025715484664686
-0.0337023523494619
0.9047263985072361
-0.01901186663244732
-0.6813374159542912
0.6122681004067339
0.06906931554194842
0.5388144653595515
0.5384021984600209
-1.077216663807394
0.489856322221993
0.5243210220799733
0.5469203558823121
0.4588518081898937
-1.005772164120894
0.4964107651648922
0.4962224454747782
0.6122681040291543
-0.5256917443477036
-0.4662786745809566
-0.5557324526165697
-0.5166085049653718
-0.1245210313592604
-0.01265490775252527
0.01265490851815348
0.5098326530125181
0.5240110540519257
-1.040619559129216
0.5738535707083926
-0.2716226982357657
-0.8835652550009847
0.3433242472240419
-0.632679950784907
0.3900466112791414
-6.18866508402261e-06
-0.8291396997897701
0.8291458884259336
0.420881439660413
-0.0226654620432439
0.8747193149815369
-0.9432284249279768
-0.835133203147595
0.05748598363910883
0.7776472195157677
0.5503487753825046
-0.4362328286650178
-0.1141159465708605
0.650021219651586
-0.7291646487181622
0.8838797860230778
-0.8288735780452894
-0.05500620785530952
-0.01234267380579832
-0.7903068722832306
-0.1108263194523606
0.715880577672287
-0.6050542582153721
-0.9400606848872055
0.927718011176405
-0.7367079931174364
0.689038924241845
0.04766906887204289
-0.8011346445985446
0.02914162701425594
0.7719930176556465
0.06173423584547535
0.04087155570263415
0.4331250853287927
0.05934865488989618
-0.8496580585464746
0.7903094035387456
-0.6440671448558637
0.5939583274582567
0.8903906071863725
0.07219663567569788
-0.9625872429868583
0.05525740395718785
-0.04951101813173846
0.3802845660186472
-0.3814723612498314
0.0656586560800544
0.8410112837511121
-0.8410174779618612
-0.7314597393691665
-0.8088553692098275
0.01854849635787281
-0.1684716189015729
-0.8484139287925663
0.01954034416779166
0.6245591384474208
0.04680406347410521
0.01753492414561559
0.5328138375760225
-0.813189752133584
0.8423313820188529
0.5657445806981405
-0.8518051707239283
-0.8678640496609941
0.036862349960131
-0.03588267834993216
0.8349089452166334
-0.7990262668572566
-0.01926805290575094
-0.76734241446814
0.5443084015780411
0.1520223930402788
-0.02171919532405604
0.8964385089579729
0.9852039942608614
0.860562700091368
-0.8410223607891411
0.1474591602722833
-0.1474591618878738
-0.1179729809659145
-0.4691215353914375
0.03288870100224478
0.2714618154571159
0.03084438697870714
0.3848221900158904
0.8771704580713582
0.004977102194425508
-0.01497432295317951
0.6586093048299101
0.3413906951887134
0.7835220337684572
-0.5836447201644034
-0.7780354733181825
-0.8119054938643936
-0.6799508397162103
0.6799508397079843
-0.168037287446673
-0.154824547804039
0.6016337388105185
-0.8114542279638673
0.2098204891612151
-0.4938909262734019
-0.5688832018955878
0.2781210915149183
-0.9720156309671151
-0.8993174275911289
0.8443112103802701
-0.820184410983708
0.8387329080650338
0.6485076185084989
0.1345455516933128
-0.7830531702054684
-0.764236424993778
-0.1461887176013511
0.7252295425661346
-0.5790408249420792
0.02214697147283469
-0.0137502134849015
0.01674945113565998
-0.00299923677209269
-0.3533255468547701
-0.1157959880795615
0.8797548324455973
0.7374586663550982
-0.2384506859670523
-0.4990079804573158
0.6233427235677912
0.6855272043931636
-0.4709250230485429
-0.0004998102011509022
-0.2851162584062155
0.01728205392254513
0.7453836360568802
-0.7626656899108761
-0.3235080106547465
-0.07152088986343783
0.07576210632058697
-0.9651407955815883
0.1259661790890817
-0.6769086731706241
0.05381673231562936
0.6405843778113089
-0.6944011100831829
-0.7567744210647707
0.07986574787270455
0.5894031538399958
-0.6609240436459854
0.1560459403702482
-0.3356107498835432
-0.7723731290684029
0.008136704092413584
0.3711874831291513
0.600541054454531
-0.02641971915834215
0.0229771112275849
-0.02297711275843786
-0.01837660246366369
-0.05300496142684394
-0.2297571941599378
0.01975649939447794
-0.01477941572752843
-0.7255690695654332
0.279414816291869
0.6784190738414754
-0.6903939466975346
0.01197487298958355
-0.5976556696419799
0.6514724025696257
0.6541714194854772
-0.06476826903254342
-0.631317984851325
-0.1254564359268384
-1.049623378145681
0.01124541398054258
0.1362137491564955
-0.7082870175883299
-0.7421443017719934
-0.7638373463482566
0.3657297123882864
-0.4084858622658968
0.4693982149238678
-0.06091235261579744
-0.676552403817456
-0.0317346136752313
0.4996366110200648
0.7306811203685503
-0.2341374299355554
0.1102572070042143
0.9570040946862537
0.4459466853261233
0.1328149223271734
-0.5787616076796316
-0.6778940255153401
0.001341622868105987
-0.04452492463963831
0.03077468647919231
0.6376824594167949
-0.7752704934844256
-0.002897688584819149
0.002897688028638917
-0.5999564468182489
0.6493108998963653
-0.04935445298885771
-0.6603590994668154
-0.1138161244449803
-0.6718349581573483
0.05143053072423234
0.6101281064928092
-0.1375336610491111
-0.8180236729542575
-0.5613108088767621
0.5714339985868699
-0.01012318864099664
0.6325053737169386
-0.6205304988887961
0.3222601078977113
0.2137813129599395
-0.5360414208737657
-0.1044618442428867
-0.6029478688439036
-0.09145323877577924
-0.1540097599236804
-0.5098802918430677
0.4043478868649089
-0.4988862671517664
0.1259595910676089
0.6786916923807162
-0.8046512834821269
0.599152483670539
-0.3751373284856555
-0.03334854779503765
0.05923732567022261
-0.5691176180342274
0.551562979549441
-0.04029946439379196
-0.5112635153550715
-0.312528819048885
0.3051622067326282
0.007366613472238046
0.4508574045214921
0.1229961613650032
0.05122355380596897
-0.3160315410066713
0.1569990613591785
0.1590324798573414
0.2544460350662884
-0.02005692797011924
-0.2973799920063191
-0.313683359336843
0.3634487260850147
-0.04976536349542866
0.7920739175066369
-0.6295307708596968
-0.03082832858639867
0.4995417629351774
0.2844154115937612
-0.5228661026064955
0.577443968006322
-0.5774439680057262
-0.2897906304043732
-0.586520821206446
-0.295515216335094
-0.5865208214447031
-0.5968575299129325
-0.8384821923741776
0.1699939611489948
-0.5966420666270382
0.8212334869919328
-0.003513195408394335
0.1193557770053983
0.4811852783861197
0.09671876726087256
0.1854093345843547
-0.03613210374360097
-0.1492772303864847
-0.02520807606717712
0.5913595492569135
-0.943151986176291
0.4207287755242662
-0.002414504143374004
-0.0001455895101172161
0.002560093565925768
-0.6438090912152814
-0.1320725673471355
-0.4655393073596908
0.5983542313844086
-0.5036383535864077
-0.3142727051178812
-0.2548449002948726
-0.2723120125614695
-0.1117734257595782
0.1117734265644536
0.153439918867581
0.05762772929335677
0.1966547511566482
0.4493412875140728
-0.5702131752619605
0.1046738638267165
0.2526120777867035
0.4662053609024074
0.5337946395911189
0.6451818789149555
0.08040936088953474
0.003390977391915893
-0.08380033924104446
-0.2769802206885785
-0.5410434522345203
-0.5450053330030419
0.1144304423531441
-0.1263360479141696
0.01190560596410415
-0.1059180357881131
-0.385726268902889
-0.04752620638181489
0.6576543224404561
-0.4993253396803895
-0.1444837515285033
-0.3290868864623942
0.2875018163048923
0.1266009825439515
-0.6063835762248457
-0.2041694050307354
-0.2623204266917926
0.0005024144994463121
-0.4210567543807305
0.3218488883615217
0.09920786609642096
-0.08889610761463622
0.2916678841875165
-0.8959270818280951
-0.457677728752894
0.6324462418279676
-0.7730616633277143
0.6685998191238585
0.3417130549123147
-0.1262070632478068
0.2252260263906659
-0.0990189636904136
0.03094189943839431
-0.5861755571015604
0.02898873056687092
0.5571868263510105
-0.9006750805301114
0.5472343704360698
-0.6652073514711618
-0.09884077907373884
0.109008971933238
-0.1090089738919323
-0.3165313565327223
0.3612926218722691
0.01899194116061383
0.0209100880006783
0.0594992451138242
0.5044524250487199
0.6664505103396432
-0.7398921274984998
0.02423119824358521
0.02084528472711932
0.002131812627524565
-0.006294498329650521
0.006294499131927699
-0.4107866930100597
0.5337828506842801
0.0154595102291663
-0.01545951015036137
-0.7925387011990891
-0.05986700138246658
0.121601232253342
-0.4505331550511429
0.555207014928907
0.4493623241703696
-0.4987167780440242
0.1499198914723429
-0.1499198928849669
0.0444936576301582
-0.01135725579729643
-0.04102170231356312
-0.9768532677185426
0.5409829479708256
-0.4716990539870109
0.04087155809543269
0.5148893070415167
0.03060796119259512
-0.5454972683798416
-0.6161094040735515
0.1167840645393722
-0.3295581793867416
0.01356662593093438
0.3159915525836497
-0.1539423342845419
-0.08019510931921141
-0.5408465665890952
-0.04532899109307172
0.1362137493637623
-0.04151960749818655
0.03862191165646021
0.08183670054232461
-0.08183669866404006
-0.532590975334833
0.4828256079373416
-0.414604677770219
0.1613105461629259
0.6222114876355137
-0.09757633186052433
-0.006227643827202772
0.006227644126759832
0.5330064262936907
-0.07356973317552823
0.006403184785237864
0.02720477796627908
0.03457707125987246
0.6894835132219659
-0.7630532464137237
-0.6633881399107981
0.6325598103848191
-0.1104064247092308
0.3133337150027758
0.7457640444940068
-0.01837660141327032
-0.2659224842929359
0.1481914118535041
-0.7446435465566578
0.4839984641654171
-0.423316518350152
-0.1012201014595378
0.003461834693512661
-0.01470996998453862
0.0231474942979813
0.4124270835218501
-0.1216666744078281
-0.3895968427140749
0.6290947887930746
0.01894938460791422
0.009338954208099087
-0.009338954591298326
-0.3561453783675557
-0.08324969044475776
-0.5605078782683451
0.5569946827693842
-0.2379471956500366
0.4647697439274858
-0.1505901866431694
0.7296855183387683
0.6712252972658349
-0.04151960739709055
-0.6158693955296393
0.5597618717437625
0.2833940774936194
-0.2802836791740727
-0.003110398311077745
0.5436637046746491
0.09343001616250318
-0.03873047738685092
0.1969284638654774
-0.1581979861968419
0.1205671742976759
-0.1205671722545566
-0.8586738317937342
0.002460728619529555
-0.1130153897184489
0.1402201667849485
-0.1318061171536002
0.1318061182537924
0.02084528530848711
-0.02460425961475606
0.6711169248313823
0.0597312557063284
-0.3229843106986527
-0.0627419582234805
-0.4712895747359964
-0.04569280971531032
-0.1516184564089636
0.1516184578909252
-0.03930668873307316
0.1433831197646205
-0.1433831211061264
0.136774629865491
-0.1367746281456281
-0.3158798721199717
-0.1144804563229862
0.2263838291959918
0.1031187923431014
0.03482413681602452
-0.82120696068256
-0.1974006681418042
0.1701661597152724
0.02109960782693096
-0.2650108137269426
0.1259292464390045
-0.12592924761978
-0.4141895756561033
-0.08469668966657988
0.2362391973080667
0.00247861135288842
0.04031709528568155
-0.5441399796596571
0.5778423320450333
-0.02556190848673257
-0.01374478037034137
-0.02610934737631763
0.01475207729045337
0.00653676158524453
-0.1843912314841406
0.1778544697962453
-0.1075903246118659
-0.2280204278530981
-0.144676958331525
0.1446769597024345
0.07269434564585928
-0.07269434492623474
-0.01923479457171972
-0.1086558284573586
0.1278906223276004
0.2369184451335016
-0.1830588128148312
-0.02123194074783823
0.02336374898856857
-0.1319783673714815
0.614803978156537
-0.03907908070193367
0.4232286494228921
-0.041018827051986
0.06290819574348006
-0.1534514293570131
0.1534514310386631
-0.6362186227642579
0.3086283888103385
-0.07913358212560451
-0.2345228516222123
0.003648718663791744
-0.1225782283060757
0.1628953242015991
0.1939852358576795
0.0973196871205487
0.09474402608093756
-0.06016695461829769
0.0728358175714247
0.04159462572273829
0.0639889450477604
0.1061772164931217
-0.09823599358827835
0.20849322318298
0.01223664825193424
-0.113015411355617
-0.1024982652492803
0.09716561003424599
0.005332653890860174
0.01150632496414163
-0.02206944131668006
0.03759451052088812
-0.03759451039712303
0.07435023332284628
-0.05503250105566916
0.05503250133749238
-0.2244733014237522
-0.05010721436637207
0.01168955795440205
-0.1031743441951706
0.0162074515866915
0.1085327254245968
-0.1085327261706275
0.293193094960127
-0.2711872910880753
0.1635969607005754
-0.05037673625119515
-0.2208105583483524
-0.01720065147811976
0.0172006510582308
0.3673594881128589
0.2852258755283352
-0.5276111626898226
-0.09395746144982692
-0.03237858281904969
0.52867003022591
0.2108090912229781
-0.1686027930146864
-0.382029129326154
0.0765899404525465
-0.147566411155203
0.1871806357959264
-0.03961422422549648
-0.06693811706298856
0.06693811651758599
0.822353984941681
-0.5604565168399627
-0.00223149989813635
0.01373782438692232
-0.02003268802828758
-0.2868971220687195
-0.01745387917897074
-0.01287083218231782
-0.1319133783065662
-0.5721451245023429
0.5559862651772921
-0.5686144377104069
-0.006941494748061322
0.09963745246694798
-0.001832973914561054
0.01667680562585558
-0.1675990961861422
-0.3364866817900101
0.2333123373992154
-0.05433463600130832
0.0350998421318889
0.1320307657252454
0.1731314369987269
0.3391293809022872
0.2764557868396105
-0.2782887613875785
-0.06387635362092058
-0.15486635945337
-0.220956227734714
0.07472849750954558
-0.01073954984640157
0.2139990013265657
-0.1973221961196083
-0.08622951596983429
0.1590653374111455
-0.3548331307636308
0.2085747222784656
-0.192367270598081
0.08967196471078684
-0.4792688070342951
0.174309809690593
0.1702098634100135
-0.256439390528547
0.07267457891871146
-0.1944785027817657
0.17702462394545
0.01739652379780909
0.1416688115234183
-0.03957297952416461
0.06614783280215406
0.4668585938609418
0.02039385984653441
-0.07856690805912007
0.05662322834090042
0.1255101942621631
-0.2605704483234694
-0.2309336830813629
0.5597021634214636
0.1574516432659329
0.07878755607732894
0.07548060635165972
-0.03103796689673592
-0.0008617149769485795
-0.002248689256658375
-0.03266016042167967
0.1710170211746428
-0.1779585163516613
-0.05541941595894363
0.02113224635807464
-0.1468165055949797
-0.05280970564088244
0.1530737943792726
0.277077402746947
-0.04031607427945261
0.0138903654835148
-0.2553184147881106
-0.1303023151742336
0.2358685175008191
0.1790720793402939
0.1295563076020109
0.0216317243625383
0.08881153855513214
0.05204296013482334
0.4524094649076801
0.01756930968570831
0.09740691362480897
0.0433997176644718
0.07195156665394525
-0.1153512830695505
-0.2423852855313623
-0.2007038074333018
-0.02010675464051401
-0.2021914022280615
0.2754251669758973
)
;

boundaryField
{
    FrontBack
    {
        type            empty;
    }
    Top
    {
        type            calculated;
        value           uniform 0;
    }
    In
    {
        type            calculated;
        value           uniform -1;
    }
    Bottom
    {
        type            calculated;
        value           uniform 0;
    }
    Out
    {
        type            calculated;
        value           nonuniform List<scalar> 10(1.036776678213326 1.064506209357572 1.022011127191905 1.020731787997037 0.9972540056614316 1.012830950391993 1.033843706914061 1.062774128139954 0.8672346006939757 0.8820360375672757);
    }
    circle
    {
        type            calculated;
        value           uniform 0;
    }
}


// ************************************************************************* //
