/*--------------------------------*- C++ -*----------------------------------*\
| =========                 |                                                 |
| \\      /  F ield         | OpenFOAM: The Open Source CFD Toolbox           |
|  \\    /   O peration     | Version:  2412                                  |
|   \\  /    A nd           | Website:  www.openfoam.com                      |
|    \\/     M anipulation  |                                                 |
\*---------------------------------------------------------------------------*/
FoamFile
{
    version     2.0;
    format      ascii;
    arch        "LSB;label=32;scalar=64";
    class       volScalarField;
    location    "1460.5";
    object      p;
}
// * * * * * * * * * * * * * * * * * * * * * * * * * * * * * * * * * * * * * //

dimensions      [0 2 -2 0 0 0 0];

internalField   nonuniform List<scalar> 
808
(
-0.03335473186759189
0.0441686361037494
-0.01158960149131152
0.03761790267929443
-0.2963427800785032
-0.05532725534647333
-0.01529712310249832
-0.0239032757160898
-0.1947671720294367
-0.08275616417285289
-0.009902310638671748
-0.2516180104651344
-0.0306200856650418
-0.0137396719409432
-0.1248122134602249
-0.01410097060076175
-0.1424746051632917
-0.01366191577780226
-0.01298969838009738
-0.05484877804723773
-0.00735538836189412
0.1167939059286954
-0.06304678637085402
-0.07062220216970723
0.1744046117771302
-0.1000473503879137
-0.150684915913974
-0.02043364374528353
-0.01758230851468115
-0.0257906369460877
-0.02031277777644537
-0.05757038414240227
-0.02289351789402903
-0.01694453125160768
-0.09817092135983795
0.3451476802018013
-0.03961610370023189
-0.01667149681551434
-0.02259346168543767
-0.02653769362992954
-0.0890627588129593
-0.1250019489384963
-0.05242593991886609
-0.02109465614104218
-0.05554961698535503
-0.04214217448955035
-0.01207603689167014
-0.1823305702728771
-0.02662807195316372
-0.2018601514867927
-0.01676808570923266
-0.06616944930107159
-0.0613759835670116
-0.0152157648049797
-0.1950909006800414
-0.02791389701658315
-0.01094519515586975
-0.01538268361576177
-0.09899514060496946
-0.03920927223462282
-0.1027259353605722
-0.1243834198215943
-0.01415900933935769
-0.1264797530374577
-0.01723519897863088
-0.05221861421342205
-0.1609176972632747
-0.03548922553367015
-0.01529341331497835
-0.4372248498469885
-0.0262852727949385
-0.2992427243014181
-0.02142053079383842
-0.02072339323793143
-0.06276471458126162
-0.01799019997036742
-0.04192840279198563
-0.3668799813884813
-0.03619409643133559
0.03871859330942656
-0.09234181447751313
-0.01688309904600089
0.05713900589690846
0.04603906671769256
-0.01728603855558783
-0.05151445829589778
-0.538258603507212
-0.2283665264291051
-0.05137552680929743
-0.1135118849249988
-0.05565989884652051
-0.1308397135431876
0.03851128451727721
-0.0262680326148222
-0.06248035443870569
-0.1160330037404899
-0.03830538810746498
-0.05243604691085288
-0.1145160762976043
-0.1359835448794536
-0.05278624609843342
-0.04670571161548955
-0.05359586925736946
-0.04418147339461675
-0.05688502530948956
-0.0752421741723803
-0.04108297731971521
-0.01107528363117945
-0.03978514206699275
-0.1222734477269432
-0.04983852535892181
0.08135625570811238
-0.04193706946983225
-0.008131601585451256
-0.02765615978814684
0.1810478335644873
-0.0381550124035006
-0.26595596659448
-0.02056154040114137
-0.05269505241743083
-0.03434528899792746
-0.04924320009450482
0.01404872086091499
-0.04772723369966465
-0.03641064738605074
-0.2196873081203217
-0.04006356724496815
-0.004705610902050895
-0.07466994068502519
-0.06949186093514693
-0.1425463255155416
-0.02097876211040704
-0.07417722862170713
-0.04397754158556039
-0.02290020162330291
-0.01502194360256191
-0.006275429566232298
-0.007310935565384387
-0.05192669255253499
-0.04898771245594817
-0.2189795939735232
-0.0555075971299131
-0.008300254806157004
-0.02195624325154739
-0.1487278114988483
-0.002750696858080158
-0.07527989313539611
-0.0209420824597833
-0.0006409206605330136
-0.01107581210102142
-0.03296259981633014
0.09320153123946039
-0.03796170763223381
0.2515622932674303
-0.2682833336493141
-0.1335593797578553
-0.03773735219223218
-0.09095001436510862
-0.009393534867607019
-0.1144711880162004
-0.174068350862047
-0.2200099679078602
-0.1749371167286086
0.05698410824907581
-0.06359893278528007
-0.02050055972330349
-0.06621005008590249
-0.1646175404409921
-0.02311731106885002
-0.01841553618380522
-0.05107543427423683
-0.02055861969023437
-0.007234872905437026
-0.1058342390148466
-0.02329649235973177
-0.04413419198261449
-0.070798105675486
-0.159100060528706
-0.03315367869972704
-0.3860117113178127
-0.01787943760324682
-0.227381414130094
-0.0435254201329671
0.03312049341211606
-0.1067224267809362
-0.01632585101482152
-0.0430577503162327
-0.1032709414814147
-0.01772394183204432
-0.09440456548021937
-0.2077136995245963
-0.07089570105406333
-0.02396090543275048
-0.04706796152953908
-0.04204533542951955
-0.2042820174422565
-0.02220390434538512
-0.0191749867762098
-0.01125741300816932
-0.05712825085522807
-0.04973354394254688
-0.02243528380378575
-0.02073038074217218
-0.2374007655626235
0.1269202403972313
-0.2068912932027367
-0.1910383055392349
-0.01176927709804655
-0.01130097058209315
-0.06659540343965542
-0.01038309394569389
-0.498371872241337
-0.1206620910562567
-0.01937548966450727
8.535937391169012e-05
-0.02377254272797312
-0.2781835642761074
-0.280206286701802
-0.007181668256181716
-0.01714203585050943
-0.001115632882905131
-0.351281307638691
-0.02842036969347085
-0.02923662506444383
-0.01256569233398909
-0.01953957588401753
0.048813407996088
-0.1140758764928432
-0.01435269028398158
-0.02087342264057155
-0.04525433799837499
-0.01829850760054233
-0.01625049030679561
-0.02349793568026429
-0.06801559872999459
-0.01123073436951381
-0.01898034747502535
-0.008720237965445956
-0.0008196758510177341
-0.02942533458649432
-0.001904006499950394
-0.002066356854281761
-0.00572500847525981
-0.02555975157198243
-0.007976383105976492
0.0014734478450648
-0.004283033611431732
0.001417997418704774
0.002493613371873293
-0.00899086622966753
-0.1364788044981818
-0.002940869508834717
-0.001200452835094114
-0.04785695035141067
-0.02155943624847245
-0.02384070524766401
-0.01422188375585214
-0.006216149057825139
-0.02097719778271011
-0.03999590113357753
-0.01447766826662414
-0.01288417400640862
-0.01130346854964929
0.008878407160777294
-0.009976955784426811
-0.01209537217809442
-0.01155791528358058
-0.01037638383284408
-0.01038998396986493
-0.01214044592373408
-0.01375583570976261
-0.2983239165962136
0.05892298824648126
-0.01585637561161051
-0.01491993047624019
-0.01273225806517429
-0.01178694404449011
-0.008598266504400088
-0.09655889951799784
0.0132243077739502
-0.01376862104433506
-0.01387432044124965
-0.010551136775517
-0.05089725698898979
-0.009920619711048566
-0.01351317065830476
-0.01033216907245549
-0.0005359877546702761
-0.01132432584522504
-0.0122518454896672
-0.02436970786848808
-0.01544675317470361
-0.01200307951486175
-0.01357559232372563
-0.00777887070943538
-0.01207464352500608
-0.01158579559497455
-0.05959848763187458
-0.0135531704132504
-0.01147994463302439
-0.009029873120104778
-0.0151320144400618
-0.01364241582764545
-0.01560226218147575
-1.363338950015797
-0.1003981020167162
-0.01304515772185369
0.02669695344316834
-0.1607016311137091
-0.0915730107015367
-0.01220114886116823
-0.0140877917856349
-0.2319733309381478
-0.02818608347623852
-0.01764062836893725
-0.0120073928797162
-0.02012160518762661
-0.01006500150252854
-0.03079827139616913
-0.4078050472557337
-0.01234748205611541
-0.01409849757113997
-0.004544485326245493
-0.01136129301664191
-0.01076649107498271
-0.01394922085549931
-0.006371206470607411
-0.02691290661652151
-0.01180466903579364
-0.1728202949834006
0.01960973570842252
-0.007342621028564493
0.004351408380771503
0.01333059071461642
-0.04869285709178761
0.02771872317822323
-0.01339855609093122
-0.1318031211094217
0.2830060865615417
-0.007637845532073417
-0.01371131945307277
-0.008034232893582944
-0.03263684603610281
-0.1255655510899282
-0.01218876051738731
-0.01199792188662485
-0.01703425334532389
-0.01348703891717102
-0.04156193480138071
-0.2199314713061978
-0.009625852717134613
-0.04348913274654902
-0.03866448744442108
-0.17704539382341
-0.1562348767001079
-0.1371508934322522
-0.2229723739746226
-0.004602559295441401
-0.02078682991524444
-0.01454027009457495
-0.01330950504041337
-0.03362543739660163
-0.02452973750071197
-0.01409006086864185
-0.01486124736910156
-1.067826896989017
-0.005522846819298422
-0.01313908252116376
-0.01819624554042482
-0.02473696005563645
0.0005653098228780042
-0.01493522990807078
-0.02527834558539396
-0.1478304078110445
-0.01362394999474337
-0.02153911736674655
-0.0141404197965942
-0.001635901543527959
-0.1776886868283333
-0.0125707595311578
-0.1497058769826959
-0.01562160270852426
0.00226694554633232
-0.01432093882240028
-0.02396478493222888
-0.01584296281747128
0.00552279075370304
-0.2688812817350563
-0.0263789935159534
-0.01638295632930028
-0.00681483192327389
-0.01044898470344703
-0.02943799991233959
-0.01389023406060436
-0.02081856477291406
-0.02066262762315253
0.01398097632064818
-0.09748598353099444
-0.02130138658624237
0.009475681048556155
-0.05768324360785439
0.1793689260024913
-0.1063478342831244
-0.3148466910119022
-0.0306129421007378
-0.0258224798216313
0.151754357628312
0.0792173879159556
-0.003802663182606625
0.05117323603656156
-0.0150631508590557
-0.0136398778967303
0.002614336649111437
0.008211741733236202
-0.06473754864995897
-0.005417656031446209
-0.056031311796746
-0.02269766744229446
-0.01571931168105857
-0.03653171242207451
-0.03291829636290614
-0.00666751772317614
-0.01493901814293382
-0.03661164121891292
0.03432143862081742
-0.03873263497358495
-0.01399954230706912
-0.119490722015998
-0.03125613272115027
-0.03973393682975836
-0.6674880500275464
0.01887536531002343
-0.01021458275262398
-0.005911089941167784
0.1706167448304809
-0.09431891253623258
-0.03566393037181942
-0.2416381675434385
-0.01580560246041052
-0.01615960368909198
0.07932683308121881
-0.1793002837561293
-0.235836398349743
-0.1888644633218563
-0.6757918499745138
0.00315462015251185
-0.01792260011530124
-0.01638469471872354
-0.08865309489855053
0.1188527153268999
-0.02111670599177501
-0.2286822419612318
-0.03599201697330118
-0.006860529997847026
0.2813378528331715
-0.01101817638142225
-0.09067048583329404
-0.1531112693447646
-0.003454780393913841
-0.04139449786461581
-0.05242671793100858
-0.199006086405541
-0.007873745137287792
-0.03970467981446498
-0.002852693755203014
-0.5427515311152037
-0.1921491226073716
-0.1791443810785804
-0.0232731660290881
-0.008438059511934151
-0.06199517976807959
-0.05638899279272828
-0.01405450070940823
-0.06947959745757018
0.005053731561102427
-0.01773881558123195
-0.09322156991908817
-0.2761419748114485
-0.008220298307586088
-0.02545646110315237
-0.02143788943498798
-0.07624026918312049
-0.08878403315695019
-0.08968359791374723
-0.01198343437678479
-0.9100660623175643
0.162608041762417
-0.07985690361723545
-0.2481574522569334
-0.04132115468128347
-0.009743095422930063
-0.2547303610560483
-0.1982523574436494
-0.03067844199884546
-0.121594696075631
-0.01937809982330159
0.5638919566185641
-0.02493165121005919
-0.2187829883069104
-0.02508512008319762
-0.005018409450570016
-0.01134843725638177
-1.240688960874992
-0.1795769434282836
-0.2261699900456678
0.005210366789618449
-0.03910881148600148
-0.2423367684714063
-0.06700831934278298
-0.0520492986669427
-0.1467696820559018
-0.1789019930624276
-0.06986487697112952
-1.213638042885219
-0.1526020208758761
-0.5382291944735123
0.08015227393134072
-0.005870017276924057
-0.02107254215448036
-0.04461761972332305
-0.03788783511294343
-0.02793223927802631
-0.1283689869202215
0.08178396212743962
-0.002337515997779544
-0.009999181267145546
-0.5659664993628661
-0.8497602616244948
-0.1756404737025954
-0.008017391601663086
-0.1305697532018724
0.0006182724775673742
-0.0001220115416372442
-0.002465490934110781
-0.06086223622171032
-0.2328734409739217
-0.01324781278684026
-0.1170194514017682
-0.1582126499440283
-0.01313032734303514
-0.03451691953641844
0.02836721777557893
-0.05866727315203414
-0.07194747258724668
-0.4933565455405548
-0.2093243830741282
-0.07909754704193309
-0.07559879675087186
-0.01942347042209873
-0.118624087376319
-0.1593248556578601
-0.07835716287685675
0.02361610255399552
-0.08711456836166713
-0.05033164035516818
-0.01487882272016322
-0.109383679502634
-0.2802278488541488
-0.05946566704188821
-0.01803931058610565
-0.0003693862370970286
-0.01004566540477125
-0.01065592244156053
-0.2305312787574321
-0.01487728286730446
-0.2159944778323327
-0.01035146191252458
-0.07422095944861547
-0.004451078674799326
-0.02326964343707492
-0.3906699483076858
-0.9286586286681265
-0.01128926748412777
-1.037238632267116
-0.6022159941650065
-0.01042454549209481
-0.6657665284152841
-0.18737804048112
-0.005786903517870936
-0.1255084982424755
-0.01667914924612197
-0.125690116158137
-0.06466225362150849
-0.08200503763238216
-0.00512864204367745
-0.002393906057828691
-1.350844509080751
-0.01153108591767061
-0.1789373305709505
0.0009467757243286087
-1.00113073423852
-1.251332293111911
-0.07801866783620807
0.01587270845231209
0.1647033091084304
-0.004514219967176582
-0.02301317462816774
-0.004219016780809797
-0.2427597037580257
0.3655214403903452
-0.04206940246482652
-0.2144989246107663
-0.01502035526425848
-0.6464166141237851
-0.07193419930941247
0.1880451561930165
-0.2985587693227087
-0.05068479875890802
-0.07019488233893426
-0.01582374642073928
-0.02151357330369254
-0.5921255773214913
-0.1510929210757575
-0.09144154551184436
-0.1213244636595763
-0.5480272391868388
-0.0451929121010942
-0.8980291433208524
0.0006069581225937852
-0.2438731467169477
-1.059972328426375
0.1623231834832084
0.288400914114389
-0.1787794822181448
-0.1876930267851379
-0.2171023283230335
-0.06595435243185897
0.02354546932904509
0.04254029427609954
0.003437293311921108
-0.1605539009973356
0.02645406715688153
-1.371345114778764
-0.08708686237216114
-0.4805283680540737
-0.3365932763235873
-0.2154387349214136
-0.1810103341399332
-0.01693132581238153
-0.01542047714983946
-0.09979122094135524
0.1756548165568278
0.3840357858819901
-0.1981443908997019
-0.1468544796764044
-0.2174569180014054
-0.06355993757974607
-0.156650447834981
-0.1704949450246655
-0.1278047025848701
-0.118216296931568
0.4626440283640942
-0.2804623278182057
0.4346605849168098
-0.5894328807265837
0.07362404453494957
-0.1912908799987089
-0.06778430929666206
-0.07818209463827686
-0.8948395322685716
-0.2130233493619899
-0.1939865999501371
-0.3544235223106335
-0.4663461281660438
0.5697317076486327
-0.2162698929190564
0.002950254380814164
-0.06700399040468522
0.3466261618649569
-0.03464817898640394
-0.1286320047551365
-0.1827329677268933
-0.06358330770624405
-0.01643534317564167
-0.200919710917334
0.1992647529791466
-0.01284901795896924
-0.09861332500404832
-0.176772165188522
-0.3225006909449957
-0.3073894899412645
-0.07459090511907386
-0.009893861462438912
-0.0830133372507218
-0.6459851344766705
-0.6786933709440531
-0.3280444829145537
-0.0590862236326289
-0.04926523756174794
-0.02459531911344107
-0.0701001984773918
-0.05472605406056536
-0.3673608871322438
-0.9677715824996079
-0.009713679751598826
-0.08525251917795955
-1.150220614731192
-1.045947501945945
-0.1107867761105479
-0.04185731512139192
-0.06764143492374416
0.3874612088173803
-0.3380981646333334
-0.04906230402604216
-0.6074049511757916
-0.1300279322881177
-0.2476622005954572
-0.2155322269851767
0.4729227993583702
-0.6382229046529295
0.07816176537528001
-0.02853350114843192
-0.5699130353236204
-0.05452879916870489
-0.3683082171987235
0.1109225031102056
-0.1936996507808458
-0.06135639827816301
-0.1314890259095284
-0.3552520729603466
-0.08219115654464924
0.5164990800621263
0.08742253668560988
0.4687483461125222
-0.1056707367472025
-0.2070057867527947
-0.511008458107689
-0.1359886008604697
0.02413173173538264
-0.05551886096002005
0.09879030873055478
-0.2997803756036624
0.236572448414695
0.00421100072995865
-0.002676835742406813
-0.5060355880184915
-0.1809907671619634
-0.08691312659118745
0.5816060262858062
0.139974532803974
0.3414643302622868
0.2252225919468694
-0.5694645757065369
-0.1920111461296288
-0.2258741354770794
-0.2200250490397792
-0.06218380003044106
-0.6854587750422839
-0.1878121684975129
0.3037614118449055
-0.1884977890509453
-0.0114677864238922
-0.1612194887939999
-0.0118323135880415
-0.1661039403624751
-0.4462264766320991
-0.07571458965290578
-0.2083208751914904
-0.07299338113694807
-0.09577909969439814
-0.1375811374920573
-0.07188576248755457
-0.4433374241753725
-0.4081387377040052
-0.02274904715050264
-0.07779096743070786
0.3315439531218436
-0.2521611374439774
-0.1748613895677092
0.5232673101787849
-0.19804609585966
0.02207550670709208
-0.4563409134999846
0.0528329985194624
-0.05930032510252496
-0.1396672303852562
-0.5930758916382177
0.1569295123412999
-0.5728298173504123
-0.5424294745403854
-0.1005151254896949
-0.5149528000447462
-0.03615425265739645
-0.1476098863977944
-0.4170191569421138
-0.01604142563821697
0.2890692507847074
0.4901574925971857
-0.1654280564128679
-0.005163168367338841
-0.08854357591114038
0.5249996104102752
-0.03219894655766248
-0.4463083981405203
-0.03186700525436647
0.4625623324745548
-0.01743082058965527
-0.5515805427097472
-0.247336643508338
0.1789383351674587
-0.3158572242062199
-0.1829924753368846
0.04652042043853608
0.03125925346896097
0.05693219196757408
-0.3047391037425737
-0.1608069465038065
0.4128976188170098
)
;

boundaryField
{
    FrontBack
    {
        type            empty;
    }
    Top
    {
        type            zeroGradient;
    }
    In
    {
        type            zeroGradient;
    }
    Bottom
    {
        type            zeroGradient;
    }
    Out
    {
        type            fixedValue;
        value           uniform 0;
    }
    circle
    {
        type            zeroGradient;
    }
}


// ************************************************************************* //
