/*--------------------------------*- C++ -*----------------------------------*\
| =========                 |                                                 |
| \\      /  F ield         | OpenFOAM: The Open Source CFD Toolbox           |
|  \\    /   O peration     | Version:  2412                                  |
|   \\  /    A nd           | Website:  www.openfoam.com                      |
|    \\/     M anipulation  |                                                 |
\*---------------------------------------------------------------------------*/
FoamFile
{
    version     2.0;
    format      ascii;
    arch        "LSB;label=32;scalar=64";
    class       volVectorField;
    location    "836";
    object      U;
}
// * * * * * * * * * * * * * * * * * * * * * * * * * * * * * * * * * * * * * //

dimensions      [0 1 -1 0 0 0 0];

internalField   nonuniform List<vector> 
808
(
(0.7562634834275049 -0.01750523556875615 0)
(1.031559585790331 -0.01262628865855148 0)
(1.11113359604238 -0.006262946033465268 -1.728331052815759e-20)
(1.085121443630103 0.01259777372162742 0)
(1.363837362198888 0.01384824322394285 -3.847998080519261e-19)
(1.03875373286261 -0.009389293516460553 -7.296103881434894e-20)
(1.014257250574573 -0.0211011942464077 -2.417274300108295e-20)
(1.079197321200997 -0.005386441099375719 9.059762803506548e-21)
(1.254610084954789 -0.0207929444990863 6.293726083166603e-20)
(1.085211432175099 0.01004779414404189 0)
(1.008862522484459 -0.008241867963513387 0)
(1.306100076299789 -0.0538826966666966 -3.496326893032053e-19)
(1.08632027848056 -0.002024770774259837 2.043588310260523e-20)
(0.6752074154115001 0.006359832576951876 0)
(1.277175402895614 -0.1156506880867118 0)
(1.081578008602142 -0.0003709321812610357 -3.860630242049159e-20)
(1.224913201698122 -0.1440350317330023 -9.482795625346252e-20)
(1.074024520432893 -0.0002140822338105163 3.201798164881426e-20)
(0.9900867124900303 0.003496914494065437 0)
(1.026432303895667 0.009707104395114553 0)
(1.032896424600982 -0.01144429352497389 0)
(0.987542432953036 0.04482014769933167 0)
(1.051109701599235 -0.005955151788119871 5.721191296766252e-20)
(1.053691925428594 0.009155263082155274 0)
(0.9329522244102122 0.1976478052844593 4.583511156726145e-19)
(1.163661768729998 -0.08497178365136983 0)
(1.186002208891248 -0.01916731768934802 1.557814886896809e-19)
(1.07734554247796 0.009595735860369173 5.221263869098634e-20)
(1.083629292741257 0.002257200219365902 5.103749944787606e-21)
(1.071748909062904 0.03088769400710272 0)
(1.075276132996647 0.002820980977364163 -1.180301445077097e-20)
(1.033123279814923 0.006845555484356019 -1.906974699444469e-19)
(1.060029195415491 0.01461052016951128 -2.356669564855748e-20)
(1.088897605542048 0.005643218587503386 -2.937181200183221e-20)
(1.121294206877447 0.0388032690780548 0)
(0.7550103845274485 -0.1231965264958472 -4.543209741779364e-19)
(0.9548212639169241 -0.005856431420947519 0)
(1.068769779154848 0.0222208036387468 0)
(1.06880013585312 0.007273460212188162 0)
(1.073755881283806 0.008846726959453776 -2.825008368546836e-20)
(1.09292024296949 0.0244244918065513 1.093765304331245e-19)
(1.151055462852226 0.003187237412732491 2.143430543026118e-19)
(1.095966150461904 -0.002250341739546376 0)
(1.01531785671615 -0.009174426443294951 0)
(1.13228002074411 -0.09293605179366533 -1.623740360509206e-19)
(1.044087486985495 -0.01162297735167638 -8.238984096318286e-20)
(1.058109775384346 0.02662838923549222 -2.70716784705233e-20)
(1.231216073077252 -0.1124809986623326 -5.578754612353545e-20)
(1.067518292624855 0.01203654267608101 -4.129063315064337e-20)
(1.258352465160761 0.0164924606963452 0)
(0.9966474269473449 -0.01926625968941363 2.200695077608628e-21)
(1.0447381912561 -0.001974323288271568 0)
(1.087570716322716 -0.002068750023303445 0)
(0.9993988473186122 0.00735243938485573 -1.854910024197208e-20)
(1.250644784897549 0.0336647005630854 -2.367407250869544e-19)
(1.063454886196781 0.01806428778906759 5.956498523648911e-20)
(0.9917795204166436 0.01077601800290487 0)
(1.017858353952604 -0.006337775359683143 2.464338564154833e-20)
(1.107625632679497 -0.0006078119275458884 -1.172662483627635e-19)
(1.061079900103488 0.03111807978574298 0)
(-0.08980667456311789 0.005914831319974652 7.563189616642876e-20)
(1.154947528839907 -0.05205307742211179 -1.874223580742819e-19)
(1.006399163425514 -0.005785363343147388 -2.706401073077903e-20)
(1.187489297286719 0.06886681795005371 -1.220351187642651e-19)
(0.9975051537790958 -0.009392457945629616 3.08797186600267e-20)
(1.084310573532692 -0.005465311170254039 0)
(1.249317732120784 0.09598931598854682 0)
(0.6960859711336116 0.00317709959931766 -7.435695772986258e-20)
(0.9885593498654756 -0.01387908641570626 -3.217366242880046e-20)
(1.460049091783326 -0.01924268228377016 4.431808604920954e-19)
(1.060485112313494 0.007612183986734414 -6.605384278686078e-20)
(1.368199354133699 0.09473170592720223 2.864543123434501e-19)
(1.054819826020472 0.006859898521821825 -1.957862235049709e-22)
(1.081047704103186 -0.01388391142551272 -2.859867569515505e-22)
(1.164750824423983 -0.2362963103578088 0)
(1.021823530943285 -0.01499274809394486 0)
(1.017012556487266 0.01797513953566505 -3.040704153941412e-20)
(1.386188188034552 0.3484623881053951 4.198360974472258e-19)
(1.097356166729579 -0.04249308529273432 9.538976488942302e-20)
(1.04575517577633 0.2096603620321992 2.460462242171548e-19)
(1.124212616340925 -0.06025805739523219 1.169231157937265e-19)
(0.9219365329197268 0.005148378587086819 0)
(0.9753300857418548 0.01851008541948379 0)
(1.00406384411809 -0.04874593269806368 2.964484043925315e-21)
(1.009820976797282 -0.01343394957392125 7.777634897058781e-21)
(1.030038698808819 0.02683413007143711 1.369094522223662e-20)
(1.529217654222973 0.03463149500366677 3.235016141827826e-19)
(1.289266148375043 0.07076341720486941 5.584345844723055e-19)
(1.0723421309828 0.003121945291230834 -8.971245880370582e-20)
(1.195992383363336 -0.09322042724719992 0)
(1.033767141238146 0.001912613466030742 1.310965939407638e-19)
(1.165369851586118 0.02178146816859531 -3.168623200805329e-19)
(1.001464329475306 0.03242638531562871 0)
(0.9996263679657904 0.002024558340732343 0)
(1.04440708173345 5.176844717591898e-05 7.919445624489863e-20)
(1.216336913703702 0.1103891726514862 4.128203756890138e-19)
(1.011110633493579 0.006985946456126485 0)
(1.091479671819018 -0.06805327724303981 -1.060313330602468e-19)
(1.151271529037269 0.03736433806835829 0)
(1.215935962071951 0.09434722953802441 -1.936275486833929e-19)
(1.10824291772867 -0.02886236420363175 -7.786027303691725e-20)
(1.027282693372696 0.01188937701444054 0)
(1.085030670013303 -0.004594476335521605 0)
(1.019000796690276 0.02634899121531406 7.943897525735506e-20)
(1.072226569493851 0.05639103020541519 -9.616158926346751e-21)
(1.103798466802365 -0.004142454703101868 6.373696874780318e-20)
(1.109773989883095 -0.09230947493900069 1.49500580298364e-19)
(0.9640622182172855 0.004381087752167855 0)
(1.065948268257501 0.03117669566735921 3.741405543247806e-20)
(1.168868324420825 -0.0766891053503793 2.290600641921229e-19)
(1.051454908904475 0.04701224177642902 -2.873922505451721e-20)
(1.022759212684788 0.06760621328780415 3.682287732247193e-20)
(1.090179904746715 0.0260323922653004 0)
(1.017934998745164 0.01580057351738887 0)
(1.028997304716592 0.009375257266762726 7.852336313618586e-20)
(0.9485868622611153 -0.03308273331572435 0)
(1.052746912622297 -0.005500308420235401 -7.576480880878376e-21)
(1.342418135729951 0.05719520986025079 -1.557900606800581e-19)
(1.079812600205225 -0.01312219198016994 2.659316800861044e-20)
(0.7439682809190193 -0.00172328641972705 0)
(0.5929837140001799 0.1944482108402431 -1.090234309151674e-19)
(0.7061951596835262 -0.002498496482788112 0)
(0.698759291306394 0.01462512542807343 0)
(1.077663434400354 0.003666108333055228 -6.585608350042625e-22)
(0.9906517767217026 0.01450463839183744 0)
(1.278711133776173 0.1223047035597386 2.525676835750688e-19)
(1.012289350036958 -0.0278348710681715 -7.588284472860428e-21)
(1.045821149594212 0.0181639244551203 1.601965207998812e-21)
(1.058690086871681 -0.01186729589453913 0)
(1.126625721796617 -0.009113950706743621 -5.080297441173474e-20)
(1.272012859754672 0.1343619644200334 -2.289581067997984e-19)
(1.089293467258476 -0.01103009063076245 -8.625540450676862e-20)
(1.070473706430313 0.02673761756400516 -1.084252805346909e-19)
(1.040872088376839 0.04677318427347419 7.240806479595102e-20)
(1.022625743601426 -0.003731978909065437 -3.475720832483844e-20)
(1.060848923323058 0.02360503116851017 5.835744567370144e-21)
(1.135330128818988 0.002729680806760346 1.037976150264114e-20)
(1.039034368903396 -0.01514197730489595 -4.810704499941156e-22)
(1.087365397468565 0.03471606305724307 0)
(1.028104373160564 0.01372638429256568 0)
(0.7722623490508332 -0.07302636734340673 -1.810586983697387e-19)
(1.030241559610161 -0.001672612076138185 -6.687485817033034e-20)
(1.129915887745374 -0.004070028086898317 -1.247801648702186e-20)
(0.703423974228625 0.006569013181009344 7.203199353260533e-20)
(1.174830100490351 0.01973665588625686 -1.952640304925779e-19)
(1.13708195683799 0.007059120950464353 5.021707062909356e-21)
(1.128985246314519 -0.01002254400569422 3.409074558625377e-20)
(1.000934861374081 -0.002945497507692942 -7.069996631363662e-20)
(1.103246033652176 -0.06167867447218827 0)
(0.9889810956993688 0.005274996941102728 0)
(1.057818108476621 0.007039538872043954 0)
(1.005578972997497 0.1883168731454233 -2.406283708250225e-19)
(0.7791761458909514 0.01242859866655987 0)
(0.8569671995994328 0.1011794250860123 -8.302799112215215e-20)
(0.08379018681477703 0.03486595783282929 -2.975243565303078e-19)
(1.171812995757979 -0.0305395424885078 -2.270987354091031e-20)
(0.6712953798282986 -0.007312164031736984 2.449804823281341e-20)
(1.167178820065063 -0.0999121274758864 6.890732279829866e-20)
(1.124153973935341 -0.00214768297575311 -5.717119155226575e-21)
(1.15408889518084 -0.04847790419804593 2.206830118158043e-20)
(0.09325769618506433 -0.2164278197974779 0)
(0.2373932106885435 0.07118272541556936 0)
(1.261635726090712 0.1084591622606531 1.890370903775976e-19)
(1.02108108523127 0.01980284084796984 0)
(0.7378099599354783 -0.006247908584703482 0)
(1.075204110825069 -0.01148849698696044 2.740127616745353e-20)
(0.9747634618612917 0.002847863411253807 0)
(1.298116466647013 0.1243064033825899 -1.532652986452487e-19)
(1.05739210406658 0.01100931118087403 0)
(0.9934531803507872 -0.006937433973580075 0)
(1.065059983077866 0.008335750694897292 0)
(1.006207704382146 0.02087016875032299 2.055620942839737e-20)
(0.9379195710159348 0.01445316217958318 1.204527124295974e-20)
(1.17697690732871 -0.1999479540158172 0)
(1.00516011874146 -0.005183349304201766 8.00607209098107e-20)
(1.059152471426644 0.006394159449341496 0)
(0.7746399036953358 -0.003282914309933952 0)
(1.218339604741388 0.02760923861338915 1.640015667380293e-20)
(0.7049631565043796 0.001364529497438135 0)
(1.435144314661224 0.08543360007295812 -5.177643565055383e-20)
(0.9952344283741494 -0.005728024119476631 1.696734797920502e-20)
(1.273325181436432 -0.002624841971916832 -2.980227826437971e-19)
(1.059549588424869 0.009030881579148076 1.349931482881175e-19)
(1.000911641429289 -0.0135446467219817 0)
(1.210763449234357 -0.141095818693228 2.053870951765867e-19)
(0.7331844698085408 0.01378558277078015 0)
(1.098486385886124 -0.004949108767634785 0)
(1.155129360433999 0.06876428273661883 1.933262409498994e-20)
(1.006697887081725 -0.006400422417557921 -3.047195071516461e-20)
(1.122039580310261 0.0528454208641839 -1.738697831884325e-19)
(0.1086628585291462 -0.09206094332468946 0)
(1.072685180895501 0.03928293646384952 0)
(0.6617663274896728 -0.002893218505938846 -5.377395241995731e-22)
(1.012142023438211 -0.01945732651949955 9.289143895626847e-20)
(1.061327481259493 0.0008519976650627416 0)
(1.075865837502251 -0.1329449332513453 3.742466880945607e-19)
(1.002796054953156 -0.006157920824849046 -3.331111308437397e-21)
(1.00331130475715 -0.004633419268049795 8.204775508916251e-22)
(1.093958120023855 -0.009258016594424523 0)
(1.020704940992968 0.02046774546488068 -6.534651303496508e-20)
(1.106568876833655 -0.001568939636964806 6.461031697024385e-22)
(1.074626855087591 -0.01106531337511577 6.658749255887785e-20)
(1.085698811378791 0.02219914351612041 0)
(1.328789159541564 0.1580930664051102 0)
(1.002043742801996 0.0003706102480073286 4.408715925266116e-20)
(1.31869140424898 -0.1297208655862259 1.586865009457353e-19)
(0.02232092959444529 -0.1769230118270735 -2.375801594658053e-19)
(1.071154371318805 -0.005370080305004388 0)
(1.112390068079195 -0.005358974149837948 1.167203721545107e-20)
(0.7267364721184579 0.01779738134093728 0)
(1.059475894835079 0.01085957852292318 0)
(0.8644876105699796 0.1627644857524309 4.635536144933104e-19)
(1.281274211311838 0.130164176494475 1.928370167026174e-19)
(0.6543036235720342 -0.003097550918355594 -6.496624432374296e-20)
(1.039746021329087 0.004631944219369835 -5.739790251754547e-21)
(1.054746695516501 -0.0002251916721847295 6.493294294289044e-20)
(1.363988387519753 0.118936160060288 6.635833204898078e-19)
(1.335071123184791 0.2518511126882972 0)
(1.05924018428685 0.00664854532400103 0)
(1.000448560932503 -0.004806258946111873 1.428424153966438e-20)
(0.992778009385855 -0.003864338413176964 4.221608726743954e-21)
(1.382932496586354 0.1994099831914627 4.295417776541322e-19)
(0.6818480306027505 0.0004654049447479698 9.954994155500944e-20)
(1.005653567826593 -0.002202650479545566 -6.017250973769201e-20)
(1.098227567058258 0.0131180043371513 2.560433205283907e-20)
(0.6694569147992566 0.004958446003100398 0)
(1.066088704451203 -0.01201804494201445 0)
(1.017475325299223 0.1487853319848932 -1.40630557218971e-19)
(1.091546792453034 -0.003871384286363402 -2.558513900857181e-20)
(0.9820073397856233 9.318735941716662e-05 3.303209407574547e-20)
(0.9912116317960189 0.006017996122886256 0)
(0.63816777287857 -0.001074018280253627 0)
(0.9767061323600399 -0.001206473133391293 0)
(0.6421005429768255 -0.001435249625354472 2.637001852370301e-21)
(1.08902919739599 -0.05521034771360148 1.207470703144411e-19)
(1.111319466893275 -0.00460236281311868 1.150687281622052e-21)
(0.9579251488893668 -0.0008609081159964243 3.883421065822049e-20)
(1.017032307997862 0.01010268280494458 1.739219312312535e-20)
(1.066759016639304 0.003937040800822874 -2.530198154659226e-21)
(0.6347355145189376 0.008876231854992601 -3.618742281174612e-20)
(1.005869249882275 0.009033578460660897 -7.232406306089457e-22)
(1.037442662845353 0.006616744892896444 5.428624038433619e-21)
(0.9857242774254572 -0.00809929745759201 0)
(0.6099521101560464 -0.0004553979562862114 0)
(1.068896906618007 0.0224906015818886 0)
(1.016660330407882 -0.01678862679455992 1.031474154284151e-20)
(1.023659869991591 -0.00925589206254409 0)
(0.9925037264833615 0.01338382551557759 -9.914743259505669e-21)
(1.009109918008777 0.001666668703892578 0)
(1.133118911613045 0.003365423497494856 -1.1678691562558e-20)
(0.03426574236644522 -0.1432321500699711 -3.805797911213535e-20)
(1.034712383352917 -0.01858004918458312 -5.789655891415336e-22)
(1.041531204766847 0.005573047622376797 0)
(1.082025065154931 0.0699780960556806 8.455580910365637e-20)
(0.9671448052878805 -0.0019475391892938 3.108117185407751e-20)
(1.020144854538271 0.01667259596305562 -2.273721658755414e-20)
(1.003661213940154 -0.002837312663945158 2.43076875600053e-20)
(1.038987814478127 -0.008076762569134121 0)
(0.6408927356096094 -0.004072162638031583 0)
(1.025880756679882 0.02452768852763174 -7.735022902751116e-20)
(1.088033126029761 -0.004911806762773832 5.034526206305169e-20)
(1.014515087492903 0.007543528639935923 0)
(0.9797003701285412 -0.0009712743862232184 -1.951212079403547e-21)
(0.8572188267125626 0.008783789354469449 -9.600435459484706e-21)
(1.014005489373255 0.002593095041814529 -9.604980493186855e-21)
(1.022277709733597 0.004765881176097712 1.885647517186136e-20)
(0.9842854486725895 0.003612792080369355 0)
(1.006038087211206 0.01192485572468161 3.290929573116794e-20)
(1.111122835629666 0.0003464016127378174 0)
(0.9311372206970406 0.009946779477221212 -3.094973692775641e-20)
(0.9543883796629264 -0.00116060227892569 0)
(0.9054400665611062 0.204140646167193 4.999999537718197e-20)
(1.010974198040082 0.06713474807508563 0)
(0.9916129326791406 0.00500216284306255 -2.271242244197605e-20)
(1.059229073305319 -0.05077286312046356 -2.863098427139726e-20)
(0.9935063238636758 0.0007779187637413908 3.262008162647082e-20)
(1.008097558693309 0.007145992433871469 0)
(0.9793256206885811 0.000883823160020895 -3.02322474500191e-20)
(1.175632174824398 0.1042781536794041 -3.425127857449211e-19)
(1.069353837610562 -0.2649710464038985 0)
(0.9936265088890984 0.0003508889495693534 -2.275076420351383e-20)
(0.9733031404901019 0.001162450310740865 4.850194173984417e-21)
(0.9621549945751554 0.001179992915488768 9.98879076357371e-22)
(0.7459511817759802 -0.001047957846747417 0)
(1.123358908358839 -0.07335722366354251 0)
(1.002709702505939 0.001466191728336876 -2.274032015356465e-20)
(0.9098693280137319 0.0125609925163182 -1.02635926142442e-20)
(0.8439768842082647 0.0001751619373487676 2.766430898405124e-21)
(1.013791598043925 -0.008922475560757493 0)
(0.9599985388192361 0.01393971411734423 1.427745777503582e-20)
(1.005560062979588 -0.000218971487109106 -2.258362535952257e-20)
(1.02491857809774 -0.003480598869549611 -2.512706576822248e-20)
(1.115027086340895 -0.002028154668241001 -4.925469698243456e-21)
(1.118410908427645 -0.002546002565463068 0)
(1.011428335028876 -0.00555687352591638 0)
(1.020691175356274 -0.001589069015468983 0)
(0.9422226000573554 0.002189432463329543 -1.970568625592895e-20)
(1.017853390883652 0.01354027545368448 5.539398738589562e-20)
(1.087516247549591 -0.006275313151772509 -2.329354144400989e-20)
(1.039978235487732 -0.007866795629857332 0)
(1.108465359768058 -0.002474855084711098 1.849309181816231e-21)
(0.9941018764900303 0.001682040752678174 -2.243659856308802e-20)
(0.9826566385374875 0.0007093255297499334 0)
(1.010198183585588 0.002971090791905357 4.678575224253201e-20)
(1.365400253575749 -0.3144435585361885 -1.124897151840638e-18)
(1.121316943052182 -0.04349726110885398 -1.101067587861119e-19)
(0.9677178531599848 0.007554999951435363 4.414989806455819e-20)
(0.7644187023107666 0.002538874018521381 -3.385160976760331e-20)
(1.224040323268659 0.05151063673706067 0)
(1.220447406953647 -0.1263562165109897 -1.477551326983163e-19)
(1.083307146338067 -0.003978257002437059 0)
(1.008225045378034 0.0005606206300203167 2.299860102762899e-20)
(-0.1960315487015335 -0.131284408193375 0)
(0.9939673393790369 -0.004659430341732988 0)
(1.012372042518003 -0.02307434708675136 4.154900949751037e-20)
(0.7064361242523113 -0.01944907208367737 0)
(1.096787645928606 -0.01481412044068399 2.24483324867948e-21)
(1.040623151557185 -0.002498584298085329 1.686342793173993e-20)
(0.6332310156121767 0.004121778054523637 0)
(1.448233683408252 -0.123838810054141 0)
(0.9859340694620004 0.001658648416618745 -1.069420988097605e-20)
(1.069748463829088 -0.01509557607842163 0)
(1.037775712423944 0.0004468950524337782 2.064186985075513e-20)
(1.081880369801707 0.002698050663074031 0)
(1.012255265221204 -0.00251644639183088 -1.133431774445802e-21)
(1.005839383220004 0.003217212732350513 0)
(1.008050559244179 0.00137082794609364 -1.077798197379648e-21)
(1.004472876916855 -0.02061909821842044 0)
(1.036440047979539 -0.006297490891921594 1.734396433266e-20)
(-0.1801116056662973 0.03240337330919753 2.753379663698529e-19)
(0.7981563381832143 0.02261786675833864 5.685121207916328e-20)
(1.005278502948225 0.001914493859128162 0)
(1.124966343603331 0.01009187594893893 -1.165299761780321e-20)
(1.114809682391663 0.005863455670296977 8.890339863550383e-21)
(1.054481093434969 -0.01276602202745756 -1.314699410893177e-19)
(0.9987756835119708 0.01038438473370021 1.679623741258124e-22)
(1.081078799948463 -0.002753296316284596 0)
(1.188751716855663 0.05243557591610421 0)
(0.8352206269700014 -0.07590492994032669 4.599513162920338e-19)
(1.089745422123949 0.0003228290833261087 0)
(1.033912007538889 0.007590491795670018 -7.61346344145036e-21)
(1.042446198121264 0.005274174233002465 5.7547778151942e-21)
(1.055229494891973 -0.05898092125754012 -7.60577308940844e-21)
(1.139244285698 -0.00131056160470228 1.705415130113913e-19)
(1.08501047171051 -0.001238611937362235 0)
(0.9941572786022184 0.001764752457574986 0)
(0.9973129497080508 -0.02681250405457308 -2.431030388134996e-21)
(0.9901663756951371 0.003538827151051133 0)
(1.031347456836979 -0.03723762150448592 6.48283338404231e-20)
(1.290634731163732 -0.09572021117864837 0)
(1.040538502298669 0.002369002384265247 -4.620882180882665e-21)
(0.9861813014232285 0.01697623498787522 -8.898448990539197e-20)
(1.032850036752531 0.04260455347561267 -2.350338628849893e-21)
(-0.07389773464145417 0.1701852757140728 -1.722900613917403e-19)
(-0.07117829426613059 -0.294970936685309 -1.303933467705135e-19)
(0.8930266057268699 0.1294445197742086 0)
(0.2820735357619719 -0.03547433496009454 -3.17587000162944e-19)
(1.005673887249212 4.966732662459633e-05 -1.096226520568747e-20)
(1.063877465060771 0.002726577412968541 -2.077114254040044e-20)
(0.9914687593332806 -0.02091272811952526 3.100761022207646e-20)
(1.024977269955667 -0.03161589896725816 2.684590533710617e-21)
(1.010212407926864 -0.03128001569443536 -6.668541440521789e-20)
(0.9888737870853238 0.004840829410575044 -3.483866470775134e-20)
(0.9932912857952892 0.005214870132003864 0)
(1.024801759882367 -0.002353377078657872 -3.46938023396621e-21)
(1.93477657956975 -0.1563834965593709 1.070711375739926e-18)
(1.04412349827553 -0.003542355732163296 0)
(0.9962129515651528 0.008405364627682117 1.50883897987038e-20)
(1.003607066920831 -0.0004723039133195454 4.002731274323514e-20)
(1.1631422925904 0.1572786966022472 0)
(1.002078754250729 -0.01173382970263595 7.724372401593538e-21)
(0.9517152297194442 0.00300275874354745 0)
(1.037839292746801 0.04174681063578762 0)
(1.30746819162344 0.154461700869708 2.297424007275869e-19)
(1.07927925759556 0.0006913793621398947 2.3290261038259e-20)
(1.016362616926477 0.02987003973221432 4.500407862873197e-20)
(1.082568335696529 0.002454587645808186 -2.24341538640501e-20)
(1.053082891197272 -0.01798675471668244 -8.346165825159809e-21)
(-0.3874699468498823 -0.05053245624252429 0)
(0.9998000286184435 0.01310700474680859 0)
(0.1176630176013494 0.05343364262432383 -9.356481229263078e-20)
(1.006592670172622 0.02024561994422634 -4.034779649368195e-20)
(1.004676255374463 -0.02604449776682283 0)
(1.001428653899974 0.005356261319441558 -4.892405285440191e-21)
(1.082029235977625 -0.04247654673332386 0)
(0.9938737349550857 -0.01786271462950355 -8.089616501479281e-21)
(1.101955005318846 -0.05608976904325124 0)
(1.444808596192854 0.1718320614083808 0)
(1.054907669895734 -0.01211457215954479 0)
(0.9909251946103453 -0.02497286983660086 -4.165705440441205e-20)
(0.998748765951481 -0.03462265014244043 -3.501545921414466e-21)
(1.014737685958689 -0.02126261689642249 -2.073925059426729e-20)
(0.9966078702956663 0.01668832947689989 -5.476188813394023e-20)
(0.9960847810170785 0.01003254540930373 -1.470471100101998e-20)
(0.9952218132694181 -0.02840873978107228 0)
(1.002056324091433 0.02369655633481221 1.896516558798437e-20)
(1.051968888317698 -0.03035792016407859 0)
(1.11126045781057 -0.0360597815010926 2.566352408393118e-19)
(0.9955505784078159 0.01658161246322869 4.515948891081818e-20)
(0.615034934985746 -0.008693443353640074 0)
(1.148812983892156 0.1627518000584871 -2.122052112682542e-22)
(0.8375408947048009 -0.08147150827890856 0)
(1.138046081163496 0.07280505069591731 -2.761454725384043e-19)
(1.316208722805378 -0.3893458452677758 1.288292621074931e-19)
(1.068980586056537 0.06533091027363955 -1.238159784792276e-20)
(1.011737902329531 -0.03157359692631116 0)
(0.9558515798089363 -0.2159241030346171 0)
(0.5390547262145344 0.1727206080255811 0)
(1.016380312399809 0.01142112408273935 1.183550430544981e-21)
(0.7002165110717847 -0.02248956481782442 0)
(0.9993610933050474 0.01645354498794306 3.474016510059594e-20)
(1.027488180328894 -0.002966037702553001 -2.725189292593042e-20)
(1.078968444043508 -0.008054036424111203 2.674963341047318e-21)
(1.053460851439345 -0.02800876162519866 2.697584226133292e-20)
(1.042686898324878 0.01174664196553426 0)
(1.060966482006164 0.02060512621272774 -8.628473233317595e-21)
(1.049933853865555 0.03635419113010646 -1.788000224846759e-20)
(0.9837339205638502 -0.0226694896296742 0)
(0.6248896683703201 0.00510114055036646 9.168871453839596e-20)
(0.8941523973739031 -0.005936453208102146 -8.844410607656713e-20)
(0.909373081806749 0.005245267421662124 1.451768243825899e-20)
(0.6296267268088865 -0.006441381370910545 1.409042460972207e-20)
(0.9809568633045842 0.0005701991124002136 2.468942953060048e-20)
(1.004417604518247 -0.01748599002513249 -3.41677466853471e-20)
(0.9843986627994927 -0.03608920669533215 -2.908948976668073e-20)
(1.085621192609596 0.001640709908321226 0)
(1.019768289533645 0.005246298682704576 1.024771204580726e-20)
(1.132377450043093 0.04859285525511278 1.333437228424376e-19)
(1.031025932351396 0.04158572438405859 0)
(1.022663168711226 0.002572191314122341 0)
(1.584439929885869 -0.1680912546219933 4.383179681334931e-19)
(1.058961419651456 -0.04435689252529396 0)
(1.018916736467905 0.01049392357279822 -3.68717807581865e-20)
(1.08221508940191 0.006447093704495345 0)
(0.4907860643328816 -0.002221645235612168 0)
(0.009169119372415224 0.01786475006517595 0)
(0.9913637529789899 -0.02390317766233128 1.244555050603386e-20)
(1.301843252525729 -0.09644988161935872 3.702873228905469e-19)
(1.03160943229261 0.03525329596019589 0)
(1.02238824123393 0.003571565954820113 -2.197460613577546e-20)
(0.9386534767568776 -0.1604557469587905 -4.351749804638879e-21)
(1.257005523901787 0.07596049142656605 0)
(0.5971798929798449 0.7288482598669216 0)
(1.310635535842414 0.1429910746879993 1.055834496652954e-19)
(1.6774014728524 -0.02620356957550331 0)
(1.055621597393776 0.1262927470456035 0)
(0.7177624396194563 -0.01348748210280258 4.113221401339027e-21)
(1.046616908116776 0.04494105756277776 0)
(0.7586599988962138 0.1230513227081287 1.367649218005537e-19)
(0.9967916140538777 -0.01640083515867127 3.577562038538215e-19)
(1.039050469859311 -0.04078933110918323 2.768289277214705e-20)
(-0.3794206895194777 -0.04163322635266511 0)
(1.072310623006142 -0.01631536849611841 0)
(1.084029950397687 -0.006822038425488871 0)
(0.6489427351021212 -0.5047561584581953 -2.474276457066489e-19)
(0.9895519764051599 -0.0006953974981910224 0)
(1.092431961127461 -0.02163441576449567 5.972965867220603e-22)
(1.1874574244138 0.1208559516742248 -2.026289752953116e-19)
(1.098558206770995 -0.0477172575531519 0)
(1.006128813559287 -0.02091199256827998 0)
(0.7723127337637924 -0.1845492474996799 -1.624282009682305e-19)
(0.881036740512559 -0.1359364855616606 1.469515310020244e-19)
(1.033269700908939 0.01420526408577881 -2.100233091419273e-20)
(1.023125448916263 -0.008976774378061457 -4.408059580940563e-20)
(0.8774354019948748 0.006951013762154299 2.870929682602399e-22)
(1.505734723417899 -0.1946968585066912 0)
(1.308904187159708 0.1132665488949251 2.97159892246269e-20)
(1.241349186174164 -0.07545555407639909 -3.295086431790844e-21)
(1.095735495572656 -0.01861474387493345 -3.990783424708187e-20)
(1.035142502919761 -0.01602011104292663 2.943628599843136e-20)
(1.092828119256992 -0.03908167902728486 9.408251547052923e-20)
(1.031956725665774 0.02064907879277474 0)
(1.050292854590212 -0.03679538591632522 0)
(1.115932201699703 -0.008958323032306068 0)
(1.098621071251184 -0.04163549839227183 0)
(0.9982823810673435 0.01098645943990737 0)
(1.151771325686809 0.08167896594850102 9.499094832958606e-20)
(1.339284748204137 -0.1564481105508719 0)
(1.037851504200126 -0.02751944353367992 -2.554641084851269e-22)
(1.04768395629747 0.05278197476276066 0)
(1.010220190701229 0.01425933845213572 -3.844453640900569e-20)
(1.033729167308058 -0.007417395830558237 9.282082026067483e-21)
(1.088941676232294 0.01344976239697281 -3.206900340452014e-20)
(1.084821045119362 -0.02810522193173107 0)
(1.070984723729767 0.004127250734830626 0)
(1.103894541383732 0.0931148056708333 -1.406201483164237e-18)
(0.9354016436177357 -0.1499249938756371 -7.085728146707187e-20)
(1.173907916200277 0.1176128607324297 1.14952963201326e-19)
(-0.4639369904310152 -0.02379585314936005 -2.906021309004517e-19)
(1.01788591932384 0.02931339097933021 -8.668797669603138e-20)
(1.006257004195044 0.003482160344680792 0)
(-0.2484104468181582 -0.005004017862874638 3.567407962160327e-19)
(-0.03324265404135462 0.2971820894276775 7.437355014744194e-21)
(0.9952093547383442 -0.006268312419599467 9.296976904500394e-20)
(0.1838305855006878 -0.04502784478233002 1.297168417526039e-19)
(1.084876818449806 0.08834254806746759 1.40956525241446e-20)
(0.09365707539460927 -0.1108377073824253 -5.465464638154708e-20)
(1.108421357079244 0.003026437490507095 0)
(1.097890761756137 0.2514371952195534 0)
(1.021079079375363 0.02148549756755029 -1.696790140401763e-20)
(1.062745389286141 0.0532498079577266 0)
(1.025808817274998 0.02344525304825474 -8.36936423977528e-21)
(1.263339414724663 -0.5491227051780314 8.026146157493628e-19)
(-0.1116289537824986 -0.240802274554138 2.113936626189743e-19)
(1.300961906630364 0.1131133744786986 -6.200116179588634e-19)
(1.122510914911529 -0.001646318989344098 0)
(1.123097842399076 0.1059644557914917 0)
(0.5226317074630543 0.07729419220543637 2.429880626371672e-19)
(1.023571525825963 -0.0202445585488476 9.511254093672876e-20)
(1.006420733301007 -0.02322787342449647 0)
(1.210992286840838 0.2703809837957656 -9.681530747837443e-20)
(1.260337146543304 0.1281186933647948 -1.52507127351407e-19)
(1.026549714858054 0.003247800190271369 1.573429860547128e-20)
(1.298839586214877 -0.08513271485754376 -4.974766538926155e-19)
(0.304227792236658 -0.02131753773529047 2.880821702611814e-19)
(0.8311474231041984 -0.1486946357538263 6.857049883347835e-19)
(1.04034624230256 0.05433685570309314 1.097216442247205e-19)
(1.03821653570041 0.003561451339448306 1.645430759779976e-21)
(1.000943547981894 0.01916899593764708 2.886674496188556e-20)