/*--------------------------------*- C++ -*----------------------------------*\
| =========                 |                                                 |
| \\      /  F ield         | OpenFOAM: The Open Source CFD Toolbox           |
|  \\    /   O peration     | Version:  2412                                  |
|   \\  /    A nd           | Website:  www.openfoam.com                      |
|    \\/     M anipulation  |                                                 |
\*---------------------------------------------------------------------------*/
FoamFile
{
    version     2.0;
    format      ascii;
    arch        "LSB;label=32;scalar=64";
    class       surfaceScalarField;
    location    "673.5";
    object      phi;
}
// * * * * * * * * * * * * * * * * * * * * * * * * * * * * * * * * * * * * * //

dimensions      [0 3 -1 0 0 0 0];

oriented        oriented;

internalField   nonuniform List<scalar> 
1171
(
-0.9279397123518094
0.9279397123625972
0.7873887166208671
-1.099009575305034
0.3116208587563083
-0.1926016996177134
-0.7650267802905839
0.9576284798084731
0.0720602790084427
-0.1167508798169864
-0.2120612260423883
0.3288121055745167
-0.7873887063306945
0.06945597835102577
0.7179327279795243
0.811585782398537
-0.1776962370883548
-0.6338895453623143
0.8744152226964207
-1.043930473143295
0.1695152504423641
-0.2851937568532841
-0.09726605030295143
0.3824598071419209
-0.03593364557773741
0.5487258474787642
-0.5127922018906323
-0.5027922256185364
0.8248214911884026
-0.3220292654332231
-0.4019446326801209
1.046035065895703
-0.1716198367455004
0.3941583735320208
0.04772792505799633
-0.4418862990135975
1.046183486122445
-0.0001484191469934114
0.4438368231853966
-0.0496784575480082
1.056867668698218
-0.01068417879370251
0.5779127923895444
-0.7705144897777589
-0.724449009306434
0.5570096019472092
0.1674394073470088
0.2207643682718828
-0.7235565962035826
0.550645566279331
-0.9228851933460707
0.3722396270439223
-1.09416333094428
0.6864054498114514
0.4077578811086164
-0.5954626855960691
0.5595290342263637
0.01825267119119583
-0.2570493514769628
0.2387966805286421
-0.02411747998285812
-0.5211650722999593
0.5452825516848536
0.4002754175878848
-0.4975414656902823
-0.9188235722200232
0.9414238160834464
-0.0226002438395009
1.067504717289002
-0.01063704666447977
0.9350057465426046
-1.116783633466065
0.1817778868961582
1.06704603648177
0.0004586828492821211
-0.6644397058989606
-0.06000931148826596
1.262319194402895
-0.864254894504578
-0.3980642999106662
0.1482224664588479
-0.1090430167843087
-0.3264613954460676
0.4355044122443933
-0.2857220267809826
0.1909953290147614
0.09472669769547305
-0.5835225877571761
-0.5154869946366148
1.014015091009833
-0.07900934637437723
0.009944884913539259
0.8254429299943893
-0.8353878148815568
0.5718878311898751
0.6904313676007308
0.4396828250861128
-0.03015647952068659
0.4304318983784193
-0.8077444064790437
-0.102534749263408
0.9102791557201142
0.5024012952634496
0.2536588818205496
-0.756060177055051
0.005585517635988422
0.5270687374178981
-0.5326542553695162
-0.4898634802661405
-0.6042998461357272
-0.4228414191173566
-0.6939422136608453
-0.02706149309035784
0.2700314671152563
-0.2429699739544531
-0.9247272282808763
-0.005093093395950858
0.9298203216990061
0.3085104876806901
0.07394932118216425
0.7622424804161164
0.04934329824726916
-0.5331680571318557
-0.06229463296131973
0.04622623603377578
-0.8539706368567703
0.07485881683166232
0.8630403916317548
-0.9378992084364473
-0.3471450842422776
-0.04158539009983345
0.3887304745693096
-0.6822003410043518
-0.2425268872317274
-0.6321669954046572
0.7070258129514865
0.6107707239227634
0.2140507658403816
-0.5429486935781679
0.9459311664571166
-0.779297769656386
-0.1666333967664425
0.02010607326970271
-0.01870834448503793
-0.001397728459485304
-0.4030929921825661
-0.09444847494965652
-0.2410564505800787
0.8518271693033131
0.04623676357351877
0.3356835615405414
-0.3819203250564082
-0.4602125548617791
0.9626138489156901
0.6802082875619579
-0.7827430315353905
0.3203868085129148
-0.01785343584109939
-0.3025333718504846
0.9307109741792046
-0.9307109741750603
-0.7822418213831254
0.1104605051785526
-0.322521728997806
-0.7500109958791685
0.7599558796268416
-0.08989194172147555
-0.1431932154566628
0.2330851573652449
0.8650107412140573
-0.03956781162541458
1.054184896900802
-0.8005260161155534
0.1860353219333418
-0.3154743523126045
0.1294390302436136
0.8593713890507904
-0.09712890841188755
-0.6118074248757137
-0.03908140148233116
0.6508888263733997
0.1237826610123837
-0.2311628954023948
0.1073802344487817
0.8057062216114382
-0.9834024607440326
-0.4354810786406339
0.329696393463178
0.1057846849825137
0.531347730807485
-0.5554652107341006
1.022014307381367
-0.4562085920728785
-0.5658057152811976
0.5991728790723139
-0.7193932872599587
0.06687227251871636
0.6525210146953329
0.1033112069350658
0.5702620818960071
0.05514389148789185
-0.6254059734026202
0.1939794828743857
-0.08351897385387423
-0.4932121491419598
0.1460670638638893
0.05030129137786057
-0.8867693689460203
0.8364680775538261
-0.4734371412633742
-0.7134759865239189
0.04903627742860194
0.4370492007778188
-0.006617304521981565
0.2998119649855782
-0.8552258191714088
0.5554138542334605
0.4157165349216096
0.5842834650465213
0.5604701597392636
-0.5142439222719569
-0.3666235761621816
0.03503993497335509
0.3315836415534652
0.681377014172186
0.2493339636729939
-0.5655267452870758
0.5711122557312883
0.110587804933893
0.875162191478884
0.01017973644911527
-0.621987165954335
-0.7492836241009744
0.7995849104417262
0.531180672624616
0.07039913056021037
0.302322130574186
-0.3727212612087253
-0.1675651808676286
0.4416094320875114
0.08545932441531019
0.8766887549290819
-0.7994586383550814
-0.07723011655353285
0.6353470676565829
0.3105840964210316
-0.430154488629964
0.5748805331963955
-0.5044814020361765
0.417228411478622
0.1334171519147717
-0.0468532760004216
-0.5927113265598336
-0.1372868150940634
0.7299981416301219
-0.1497602026223496
-0.7809507676269107
-0.610991146335611
0.3607845862519781
0.250206560121065
0.6221726309168736
-0.6119928968428014
0.2389201585141947
1.011239660324476
0.04294523319632284
-0.7492836232973784
0.2307737961231494
-0.210667719020248
0.6802082913002703
0.8019573644275966
-0.8019573644006025
0.8377331074052522
-0.8333044872854037
-0.004428620111374337
-0.4453919254172181
0.8611084594559952
-0.147501256977448
-0.3457108979859185
0.7346980595443503
-0.6684518361182277
-0.0662462234309221
-0.7318390470319581
0.1391277149947838
0.1386715075133491
-0.6718395679372923
0.782743037499902
-0.9503082183715282
-0.3667994395238255
0.2917156107921869
0.07508383007520018
0.1459718682747541
-1.009657100970818
0.8636852326880012
0.4812359645919905
-0.04155313950144675
-0.3081890041107163
0.5865083415759942
-0.2783193374892209
-0.7383852131786031
0.8843570832480119
-0.1571251451364643
0.733204450782763
-0.8431602849862526
0.1099558343456802
0.9767152057259275
-0.5414009110615432
-0.4353142946264945
0.7551040911890546
-0.06497757678185034
-0.03227353281960412
0.1869625419072571
-0.1546890092929224
-0.7757706234368211
-0.8457910750070319
0.08076429564835921
-0.7500109968554535
0.5138222665511298
-0.5554076596186909
0.09230040047363683
0.7202124998019492
-0.8125129002814204
0.7537122520942298
0.1742274592166156
0.5028848263877744
0.4971151736144644
-0.04964218067892381
-0.6085766741561401
0.6582188545372059
0.8838347205366266
-0.00714596439243613
-0.7551040911907528
0.7995849082971396
0.1910335982264764
-0.4480829516074051
0.01994766672051054
0.002510119632014189
-0.02245778632917383
0.5887476353602807
-0.438339711719989
-0.150407923758027
0.7179327220084344
0.01262828927087322
-0.1125866256314548
0.4370015810756884
0.1517460523724054
-0.01506155755405739
-0.005377033392139896
0.02043859067910731
-0.03240904536910025
0.00013549548961312
0.2433640847197583
-0.2612175197180712
-0.9590825063055779
0.00158256113457816
-0.1594975980106372
-0.1234353608662077
0.09443250670928842
0.7215573984586212
0.7290576464609142
-0.1447741808427691
0.6656997469905347
-0.5733993479681324
-0.2117236159765804
0.3977589407322289
0.6954399834177154
0.02249273859614408
0.2416465479155614
-1.074951042560831
-0.9503082141364289
0.3018931784156075
0.7599558803937538
-0.2086472615242753
0.06545404421022116
-0.7231399610188267
0.9104691532557598
-0.1873291921972132
0.4159112286624238
-0.02718075213570299
0.7714904955215597
0.2806067138489458
0.3722132559446023
0.07162357683657573
-0.6586878832402167
0.6586878832379333
0.2146135561808893
0.6956656053865873
-0.05514349135346613
0.3908270627620308
0.3803609190248657
-0.01571753105840193
0.03566518438080938
0.4493375140415827
0.03189844460798545
-0.7383852125723936
0.5341240788409225
0.2005739754660706
0.3056134452729034
-0.1186508981986357
-0.6954399793774032
0.1802452333370648
0.7302239207529261
-0.01014797912933249
-0.813730402986915
0.8238783821036306
0.6962779606976497
-0.7921136270169405
0.09583566628591925
-0.7537122496657566
-0.1495134012826455
0.2107748889001115
-0.06126148771191565
0.07711480175268536
-0.1800113201283895
-0.1117749348256601
0.2917862545639974
-0.009738038117960791
-0.005323519490491213
0.7064085371584693
-0.7165565154870761
0.8847542178017689
0.07287426503803873
-0.3115854836844834
-0.5199923175102021
0.8315778011078085
0.1025894521144317
-0.1025894526085344
0.3267555308146465
0.4786630941305908
0.6099308614474579
-1.088593955508108
-0.1941501543022147
-0.5856179267440564
0.7797680810406649
0.01219587075376585
0.2208892860276602
0.377248367126463
-0.2534657068793486
1.012965997303822
-0.5343029017191115
0.6644979808488319
0.9935479184706627
-0.3836170569432774
0.2297471062735507
0.8843570834220121
0.7127372485709377
0.213674652595497
0.7277491653943555
-0.7809507656419703
0.3413121072277404
-0.2791096946926164
0.2481927268575829
0.03091696914248541
0.85073273627684
-0.01554196937027349
-0.8351907669490808
-0.7020530726098084
0.702511756743041
0.5546080731979744
-0.7020530717461038
-0.7127372485623069
0.7025117581306867
-0.03417901231780123
0.9036274650561353
-0.01887324666428189
-0.6813770174369284
0.6123189372329375
0.06905808021154113
0.5389040115472655
0.5378110338909693
-1.076715045452343
0.4917739616032469
0.5211920363287753
0.5445921796497938
0.4597085353484943
-1.004300714989497
0.4985421943780092
0.4950057248197569
0.6123189391779759
-0.5256355678625396
-0.465621940871979
-0.555882958667908
-0.5189318091890559
-0.1229477882127892
-0.01240559112529371
0.01240559109516307
0.5110932674118944
0.5233416937770627
-1.042273502946535
0.5752088577044322
-0.2728867278623787
-0.8846156015796827
0.3432146920479075
-0.632779922278257
0.3902530344078701
0.0009623097498878936
-0.8307324868475363
0.8297701771500096
0.4208686409350856
-0.01939159377976048
0.8701243294579933
-0.9437524779690157
-0.8353863460218565
0.05679858957966143
0.7785877564906467
0.553409515951243
-0.4365096117930393
-0.1168999042518903
0.6499368491436698
-0.7289461937494338
0.8832919682623026
-0.8312904669759386
-0.05200150125234536
-0.01005419703805041
-0.7894044400371669
-0.110138789834887
0.7159970212221953
-0.6058582313893203
-0.9377716990312854
0.9277175010339387
-0.7353727853929891
0.6905048791257853
0.04486790629053802
-0.8045732674292433
0.0335291665317675
0.7710441008952947
0.06163240644070558
0.04095705091780112
0.4332291125400577
0.06046050529412406
-0.8501372441975883
0.7896767389302692
-0.6426390002907769
0.5929968162749862
0.890989852850013
0.07067458250624936
-0.9616644352915411
0.05560350934997315
-0.04820289955282384
0.3797865357692555
-0.3812349035457324
0.06576054944352054
0.841780511555135
-0.8408181994977545
-0.7316990051035351
-0.8075744500362934
0.01817001042197054
-0.1669672458876711
-0.8504326471331994
0.01914218239278908
0.6254169565788538
0.04028279190529219
0.02232924780061237
0.5310802707816343
-0.809235982042087
0.842765147941746
0.5658057220073364
-0.8501240761433887
-0.8670971136363997
0.03653035142525086
-0.03957016932759694
0.8366568445745841
-0.7970866752389498
-0.02066246579199356
-0.7712691751052924
0.5443376163003765
0.151940347719849
-0.02742086232107738
0.8975451930005426
0.9845160934530897
0.8607742838480408
-0.8416321001237955
0.1473092487948041
-0.1473092484573418
-0.1184636127546472
-0.4767479625657685
0.04023835349426268
0.2713325091915245
0.0305606692189065
0.3848415270967561
0.8768827270484295
0.003115904358724353
-0.01285393130679529
0.658618741616726
0.3413812583811875
0.7834915278211343
-0.5835225859440235
-0.7780332814077691
-0.8126286441543535
-0.6799115168291743
0.679911516837144
-0.167823630700143
-0.1546980922829927
0.6014816509706948
-0.8118359097900474
0.2103542588239782
-0.4937402723059083
-0.5689546558493607
0.2782168753517149
-0.9721590919727489
-0.9006731697456073
0.8486716707688972
-0.8189747046711132
0.8371447137840492
0.648599613752074
0.1345420057653559
-0.7831416195258948
-0.7677607392710403
-0.1459622392019539
0.7247848924526197
-0.5788226532822048
0.02379044193947698
-0.0150288282784406
0.01806375891433993
-0.003034930781802063
-0.3545078095563849
-0.1222401554943196
0.8796985258762032
0.7379973913881006
-0.2404163208270171
-0.4975810707951313
0.6210974880626715
0.6853124428645814
-0.4706988850296081
-0.0007807704934310175
-0.2849412567436885
0.02322116751578032
0.7438499494397469
-0.7670711168954334
-0.3235594792518527
-0.07152673484719807
0.07548256112749684
-0.9618958794567745
0.1267051136156878
-0.6772939046509899
0.05270146277364329
0.6411740671368423
-0.6938755299508546
-0.7569915267270406
0.07969762209098101
0.5888951575264673
-0.66042189235842
0.1560015881959861
-0.3360129058737326
-0.7717559125795791
0.003995173277440187
0.3712449807474303
0.6012945330663164
-0.02641400050459954
0.02440320723065701
-0.02440320680340815
-0.01778261058308999
-0.0527214908749208
-0.2263882027323815
0.01889272419980339
-0.01577684103035588
-0.731473123875482
0.2793928081774579
0.6789306125743731
-0.6905173674429981
0.01158675486717255
-0.5984315527797328
0.6511330166006336
0.6534997921771001
-0.06460463347859915
-0.6317106181907551
-0.1252809070143209
-1.049623230477643
0.01121439752608047
0.1360948472759879
-0.7082519598703747
-0.7418494088980916
-0.7634979350629815
0.3654336393459681
-0.411683314071263
0.4709238939712999
-0.05924057946930186
-0.6787188308060071
-0.0295331290829411
0.5002176649269759
0.7306790112513031
-0.2331619156261308
0.1097265541569359
0.9579007091310294
0.4456862565185828
0.1337431433253131
-0.579429399863668
-0.6784823194001158
-0.0002365098050958967
-0.04447441631265022
0.02944557171806335
0.6375144113972647
-0.7748012282298394
-0.002831827437576821
0.002831827797673227
-0.6001615373465412
0.6486477837149158
-0.04848624648119262
-0.6561530703860387
-0.1135610852364893
-0.6717816093838999
0.04898283656450983
0.6092360203420677
-0.1373175233068298
-0.8177438522624769
-0.5555846720593615
0.5689739229554542
-0.01338925158611402
0.634293096161639
-0.6227063402
0.3221958295396664
0.2140396851767963
-0.5362355147049367
-0.1043350016995121
-0.6029801834994172
-0.09089534594844069
-0.1544752811451112
-0.5066018462775707
0.4042771850422893
-0.4987256599266963
0.1261534531894414
0.6785000404652458
-0.8046534936044091
0.5991728790736816
-0.3740306139768242
-0.03765270874754025
0.06453115730459873
-0.5711330051057348
0.5517772062542294
-0.04031623157130715
-0.5114609746290605
-0.3122080705119022
0.3047975272980623
0.007410542882603623
0.4519410965141986
0.1232677637541036
0.05051960474129751
-0.3157619661405649
0.15667818227635
0.1590837838157654
0.2494466550734435
-0.01867287097352739
-0.2972749012001956
-0.3139778239039293
0.3678970571381715
-0.05391923427711616
0.7912030906583959
-0.6292782214063136
-0.02687484913109424
0.4995197163058409
0.2823734107449879
-0.5227897280853094
0.577462884866385
-0.5774628848659112
-0.2897797821200469
-0.5865064660098861
-0.2955186495344748
-0.5865064658705946
-0.5962307935197073
-0.8384964295463572
0.1700445900309905
-0.5890398792932386
0.8212217978934556
-0.003630452588269367
0.1198156555502607
0.4814788775278329
0.09668570543370185
0.1852149368546031
-0.03612355563749764
-0.1490913808935885
-0.02006594402507208
0.593049232857584
-0.944702160369579
0.4247098448732553
0.000127683915807178
0.0002871355156883834
-0.0004148188944379439
-0.6434272863419251
-0.1319131659969568
-0.465431081108193
0.5991742267292849
-0.5037488123733151
-0.3159996089944158
-0.2551334094360888
-0.2719727054023901
-0.112001918190877
0.1120019178283156
0.1530276428843306
0.05774723641832071
0.1964293266799375
0.452251027468456
-0.5717567484641448
0.1063256669917474
0.2483204157024083
0.4661236524513517
0.5338763475711288
0.6435164305561455
0.08052776155500158
0.001962283500171033
-0.0824900437974567
-0.2768643207855135
-0.5408795315377416
-0.5463067532709696
0.1141286846274389
-0.1260935991482102
0.01196491447304874
-0.1060278419174594
-0.3860271279051252
-0.04508487334021648
0.65432088679941
-0.4989943686004005
-0.1444329177269985
-0.3347079387347264
0.289895927038079
0.1241399058859315
-0.6029324793491058
-0.2039471964918568
-0.2617860498246022
0.0005685301086823093
-0.4215048978420298
0.3216911058862848
0.09981379207540503
-0.08926350072472293
0.2916203255811056
-0.8959201729726187
-0.4579665761555332
0.6342549432609605
-0.7729325391483447
0.6685975374414331
0.3426241690181699
-0.1265249571134238
0.2257905745477215
-0.09926561743429368
0.0284266770225023
-0.5862039643579792
0.02923064599012553
0.5569733183417498
-0.900723593457476
0.5468506476360092
-0.6653142603440791
-0.09603048872730288
0.1089384492968142
-0.1089384493688677
-0.3165427336391045
0.3634284256739717
0.01635811553958599
0.02319942297675885
0.05732831734542147
0.5047666726752826
0.6638841091716879
-0.7411142246886355
0.02570953358577224
0.02252495014623289
0.0018782570013576
-0.006478904549847556
0.006478904336598387
-0.4134633840242531
0.536731147526311
0.01523443275530263
-0.01523443274159021
-0.79235131310646
-0.05988449236168525
0.1215169002796473
-0.4514646713380805
0.5577903381562738
0.4494656343551548
-0.4979518832268421
0.1497479053606975
-0.1497479049437656
0.0424969041569427
-0.006831721989017428
-0.04089677249488562
-0.9773701299404561
0.5420558371644485
-0.4727039574833761
0.04095705056844546
0.514570522719461
0.03085541678415725
-0.5454259395451012
-0.6158891972438166
0.1168948298395001
-0.3298021059710421
0.01349809754671429
0.3163040086431825
-0.1535961852391857
-0.07956573164194709
-0.5407496406059545
-0.04545431906039733
0.136094848559986
-0.04155693053972517
0.03872510908437684
0.0819540013173683
-0.08195400090047204
-0.5375174950260426
0.4835982683407326
-0.414400467472384
0.1613264103672421
0.6221651174569168
-0.09795051864730951
-0.006339447155237069
0.006339446708188352
0.5329959253731344
-0.07185220528919845
0.006348995224173736
0.02715640357708889
0.03447815475086601
0.6883729966542743
-0.7602252020016517
-0.662681616736733
0.6358067652403998
-0.109275548383639
0.3128694776307263
0.7460348792775927
-0.01778261073131127
-0.2667038400783944
0.1480529410653237
-0.7446723202669587
0.4842554262683622
-0.4221006524184394
-0.1013186675372333
0.003587981552389735
-0.01466778021416755
0.02085500453788704
0.4122593630781448
-0.1217005001654825
-0.3897604705259311
0.629029720669389
0.01888447323894971
0.009977981153168334
-0.009977980908949571
-0.357672499439132
-0.08526646869228645
-0.5606435131626228
0.5570130605260178
-0.2382998891441651
0.4648078398633946
-0.1507523336935356
0.7286651267833689
0.6727468554639301
-0.04155693716282236
-0.6151040418867153
0.5601602298133832
0.2865077470267355
-0.2840608352116572
-0.002446910674150901
0.5465432593382044
0.09340505201506774
-0.03877398262619688
0.1972188250458571
-0.1584448423430171
0.1207280058598051
-0.1207280058689167
-0.8587344375205936
0.002438655800300654
-0.112910354735863
0.1400667582914959
-0.1320117974597558
0.1320117970202074
0.02252493773376477
-0.02412205786661932
0.6713029405696131
0.05892098159106628
-0.3231888304933739
-0.06283829715552852
-0.4712655969019117
-0.04820019953789235
-0.151801420872825
0.1518014203891555
-0.03999314554715069
0.1431947181799728
-0.143194717677827
0.1369404232695499
-0.1369404234879101
-0.3156444050057724
-0.1145100836034199
0.2266431066348378
0.1030532826135933
0.03485605414406379
-0.8211542175365905
-0.1972020150147648
0.1703476920028984
0.02068590387533105
-0.2655033087667097
0.1257290441552653
-0.1257290437120675
-0.4140723651020767
-0.08465329569381796
0.2365844264966694
0.002212251257679386
0.04039707267250139
-0.5435270589099386
0.5777060712455269
-0.02301700569894799
-0.01697613865331013
-0.02778019142337437
0.02094846265367525
0.006553182037351173
-0.1841778734543057
0.1776246915164915
-0.1076329891970662
-0.2283799232506004
-0.144867737479291
0.1448677369727503
0.07292772489390256
-0.07292772519763092
-0.01944584303807365
-0.1087075546738458
0.1281533978716772
0.2402174628911694
-0.1827690356186765
-0.02267459113217399
0.02455284640301138
-0.1362229527480931
0.6198212189307419
-0.0390741921360347
0.4215673808080738
-0.04123009767470982
0.0616686856851874
-0.1536311545939477
0.1536311541534862
-0.6360836058338931
0.3089758660126222
-0.07922875918818326
-0.2347756955227048
0.003612806414661968
-0.1228007728712516
0.1631978456171063
0.1940195689748713
0.09776668453017398
0.0947335648665858
-0.06025541038183599
0.07257249397347951
0.04155618985499263
0.06385238880321749
0.1064953048746187
-0.09646130836840393
0.2061878762689541
0.01280977459746135
-0.112238134566349
-0.1026573250576373
0.09783561034991846
0.004821715196407669
0.01254696182721905
-0.02234562224472732
0.0378137876155572
-0.03781378767043788
0.07441805165252093
-0.05478564517565482
0.05478564513010868
-0.2245567108797936
-0.05056945034455716
0.01154738800012448
-0.1031590048783447
0.01621242880814225
0.1083067425534514
-0.1083067422934572
0.2938333614147433
-0.2715148282917235
0.1638818396097546
-0.05039860323327591
-0.221116224115957
-0.01750852849846225
0.01750852864165729
0.3672560360447168
0.2852649790688552
-0.5273680193494004
-0.09398783951432765
-0.03210576402487631
0.5285824477662486
0.2124372812297937
-0.1689371600048747
-0.3821622715065089
0.07654947761562933
-0.1478392246316935
0.1874293789465759
-0.0395901544765142
-0.06675055658472735
0.06675055680456937
0.8225843568986041
-0.5606010447740821
-0.002230589065903553
0.01477755174369069
-0.02000990222074143
-0.2866112666584671
-0.01746566922732212
-0.01285594223021526
-0.1317479737958401
-0.572017551516054
0.5559188905123521
-0.5688757486056556
-0.006933703932102342
0.1012223467163252
-0.001829724502416242
0.01669071530346319
-0.1678491358954171
-0.3366892150164099
0.2335302102207781
-0.05455979098147672
0.03511394355021522
0.1318223001612453
0.1729752325481885
0.3366413269385863
0.2768030316772528
-0.2786327559735035
-0.06393222912452992
-0.1547889640561156
-0.2212776089133106
0.07486504661276762
-0.01101265573807735
0.2142649988666338
-0.1975742835066795
-0.08624539641469557
0.1588178892463792
-0.3548360646335776
0.2088434409544116
-0.1926310122711715
0.08965862304603807
-0.4794190925135804
0.174573433557398
0.1698458849139154
-0.2560912801173398
0.07238794356718228
-0.1942329934605223
0.176767324204894
0.01742229910916888
0.1413955872676859
-0.03955121885253929
0.06633617548224603
0.4666597498839425
0.02030525868994652
-0.0757385066781783
0.05685341461852506
0.1253989787465626
-0.2608677787022136
-0.2309045341628484
0.5596982333830125
0.1578144982914437
0.07876993066034639
0.07584332660276268
-0.03097196780951742
-0.004259478803136959
0.001812570929419472
-0.03274295732026294
0.1712525327634676
-0.1781862366220004
-0.05488350198340238
0.0223222515105088
-0.1466527293602105
-0.05283740347641478
0.1513043556109705
0.2770945168231679
-0.03953810267223815
0.0166889912803212
-0.2555606790116496
-0.1301351816463595
0.2356064393899666
0.1793016411063612
0.1296742194917901
0.02163398140035729
0.08907920884312755
0.05198008933569587
0.452786583358839
0.01763150675308073
0.09700748853062159
0.04375561141699724
0.0716569880341798
-0.1154125997213396
-0.2421030382966209
-0.2009356144626926
-0.02018061073937512
-0.2023245784709951
0.2757412869863763
)
;

boundaryField
{
    FrontBack
    {
        type            empty;
    }
    Top
    {
        type            calculated;
        value           uniform 0;
    }
    In
    {
        type            calculated;
        value           uniform -1;
    }
    Bottom
    {
        type            calculated;
        value           uniform 0;
    }
    Out
    {
        type            calculated;
        value           nonuniform List<scalar> 10(1.036366141203817 1.064539579304919 1.021504899542302 1.019734230741724 0.9975195695350725 1.013937534123728 1.034434961524862 1.06269492817774 0.8672426669485461 0.8820251155269569);
    }
    circle
    {
        type            calculated;
        value           uniform 0;
    }
}


// ************************************************************************* //
