/*--------------------------------*- C++ -*----------------------------------*\
| =========                 |                                                 |
| \\      /  F ield         | OpenFOAM: The Open Source CFD Toolbox           |
|  \\    /   O peration     | Version:  2412                                  |
|   \\  /    A nd           | Website:  www.openfoam.com                      |
|    \\/     M anipulation  |                                                 |
\*---------------------------------------------------------------------------*/
FoamFile
{
    version     2.0;
    format      ascii;
    arch        "LSB;label=32;scalar=64";
    class       volScalarField;
    location    "464.5";
    object      yPlus;
}
// * * * * * * * * * * * * * * * * * * * * * * * * * * * * * * * * * * * * * //

dimensions      [0 0 0 0 0 0 0];

internalField   uniform 0;

boundaryField
{
    FrontBack
    {
        type            empty;
    }
    Top
    {
        type            calculated;
        value           nonuniform List<scalar> 
15
(
142.2816468201392
133.559556947085
138.0604147577775
144.3852206348398
159.7580580576367
131.3661210219047
140.1142219143264
135.339056903741
153.4478186323843
135.7272016240276
136.0781997478935
136.7798961724877
125.2501975005459
132.9073240917149
123.9557544565322
)
;
    }
    In
    {
        type            calculated;
        value           uniform 0;
    }
    Bottom
    {
        type            calculated;
        value           nonuniform List<scalar> 
15
(
155.5681956614031
158.1150522102913
141.1052750592209
142.0676191156794
141.1873353255316
148.4511255221485
142.7149305610354
143.1588474548346
143.4213468554575
134.0679281972014
125.7358347085502
141.5632545203511
122.4087968906462
123.4867614005341
124.1408434435757
)
;
    }
    Out
    {
        type            calculated;
        value           uniform 0;
    }
    circle
    {
        type            calculated;
        value           nonuniform List<scalar> 
32
(
56.01211547018611
21.7181697227597
65.19114643729087
26.45514432165396
20.41599718720731
56.29313645867434
56.59043635607642
23.84589803931455
22.05849502594542
65.4273831919301
39.80678829288937
62.88596344374987
50.66679872420388
17.59769799486773
22.52343071188976
18.81318290938784
39.34996821130174
59.85336028076816
61.11584184371114
26.31323076951744
65.83616229809044
63.71406324068396
63.13287578737233
59.8134255469878
64.20633241211095
46.09241209056846
66.49965537800625
32.24838629487298
37.82896992617104
55.6292096681214
21.42436870729596
43.02481842546141
)
;
    }
}


// ************************************************************************* //
