/*--------------------------------*- C++ -*----------------------------------*\
| =========                 |                                                 |
| \\      /  F ield         | OpenFOAM: The Open Source CFD Toolbox           |
|  \\    /   O peration     | Version:  2412                                  |
|   \\  /    A nd           | Website:  www.openfoam.com                      |
|    \\/     M anipulation  |                                                 |
\*---------------------------------------------------------------------------*/
FoamFile
{
    version     2.0;
    format      ascii;
    arch        "LSB;label=32;scalar=64";
    class       volScalarField;
    location    "1566.5";
    object      p;
}
// * * * * * * * * * * * * * * * * * * * * * * * * * * * * * * * * * * * * * //

dimensions      [0 2 -2 0 0 0 0];

internalField   nonuniform List<scalar> 
808
(
-0.0359461437226206
0.04505101347212249
-0.01181313411254179
0.03498694013602677
-0.3040840266463087
-0.05465873203692632
-0.01456319383182853
-0.02392191612225028
-0.2003135969247225
-0.08572467009390278
-0.009540208873626371
-0.2580024601802131
-0.03058642709591374
-0.01295866483840128
-0.1212748513122002
-0.01402605927048411
-0.1397667636148626
-0.01357105281382755
-0.01240158326935268
-0.05699661964529992
-0.005878483262956853
0.1183825741233569
-0.06077282037387265
-0.07347243373558091
0.1765970983777359
-0.099376156340169
-0.1554224174880763
-0.02030193920992815
-0.01736554888225799
-0.02597878158799614
-0.02016515256593957
-0.05991675262078571
-0.02293105153779953
-0.0168282101050076
-0.1012185140541573
0.344022622680947
-0.03855198284137263
-0.01676216449483001
-0.0232630249997966
-0.02656335259803786
-0.09198623460123699
-0.1291613640299399
-0.05072914224211408
-0.02066518064178257
-0.05473235469575304
-0.03980267538720721
-0.01233010345728572
-0.1877819937530542
-0.02756782209502997
-0.2076538677106443
-0.01613980780636324
-0.06903645796344443
-0.0594344129854962
-0.01467692652935061
-0.1901392744810803
-0.02896303500900812
-0.01060357998452017
-0.01415936338990291
-0.1025035857451025
-0.04068354424725473
-0.09695331330213339
-0.1287594353640622
-0.01339004772624961
-0.1305173424953374
-0.01697817777213156
-0.05054286774041501
-0.1674945113534439
-0.03565648736212396
-0.01486758630291175
-0.446524057649852
-0.02696893669823456
-0.3083596171744802
-0.02199553942704305
-0.02039796932684134
-0.06748587139895673
-0.0173629188025567
-0.04353907004370838
-0.3589194707320643
-0.03547247372637456
0.04217977309156742
-0.09037632836220925
-0.01726987141510091
0.05682627837296355
0.04340781575840934
-0.01656635171681639
-0.05330499032089267
-0.5494746832983478
-0.222582366706538
-0.05345512208855894
-0.1114345182423036
-0.05807633239078419
-0.135102835742719
0.04083322345702189
-0.0237248780003943
-0.06047828896005705
-0.1199646340729393
-0.03849213203077561
-0.05200613594787909
-0.1183175532028247
-0.14046860038136
-0.05211061635816308
-0.04842861363417128
-0.05566940430835168
-0.04579161654328918
-0.05791057020586373
-0.07316160772337058
-0.04142174730215125
-0.01122994861736364
-0.04108797184968039
-0.1268730853773761
-0.05126306209239671
0.08344877524058243
-0.04313720605985876
-0.007991815277521269
-0.02782042464089738
0.18012385481858
-0.03988110059483671
-0.2739000402393344
-0.02032354208203427
-0.05491161333396294
-0.02712022630339261
-0.04779536638409445
0.012587337365075
-0.05015004650792205
-0.03392642264963373
-0.2139328759057847
-0.04297573159579508
-0.00498893576112068
-0.07783134335558492
-0.06747472173497858
-0.1478517643448622
-0.02095656798239389
-0.07660595653806195
-0.04101442081802159
-0.02275199676506783
-0.01661822794485261
-0.006383609949054371
-0.007383624139566104
-0.05315571997436421
-0.05100120868201205
-0.2088642160274221
-0.05818335059634094
-0.008558190891705885
-0.02275963756152708
-0.1446499763987946
-0.002282352665541539
-0.0778512195202108
-0.02381046363648679
-0.001324356777884887
-0.01039118178603079
-0.03389386131738247
0.09567965576425831
-0.03983503337726683
0.2528059114114084
-0.2645822255507361
-0.130178646738572
-0.03715336125388034
-0.09127848065644559
-0.009142519934462778
-0.1116328448117863
-0.1860729862673891
-0.2139717689102301
-0.1834494700515274
0.05536281078674144
-0.06176707912369896
-0.02030720070256632
-0.0679696085991548
-0.1727425599235965
-0.02388899054127883
-0.01855164570617409
-0.05337758632324464
-0.01792939341668584
-0.005868903495689189
-0.1106639426120195
-0.02279165360925238
-0.04672836638719635
-0.06870305315292677
-0.1640816425703663
-0.03371537372116684
-0.3965994446830089
-0.01781375140003357
-0.2222058648502848
-0.04549484146702161
0.03048683816118859
-0.1050861352753483
-0.01408461072789934
-0.04154882890847809
-0.1058690725253706
-0.01771866777933442
-0.09713427522515228
-0.2050171637063357
-0.07304053601961885
-0.02372967493639296
-0.04995033018933081
-0.04387305661805332
-0.2039947869914238
-0.02186584729317564
-0.01896579069790774
-0.01137004133116952
-0.05450067703694715
-0.05211543612406334
-0.02243419022352616
-0.0208261305210805
-0.2479343415387208
0.1280897622234662
-0.2002257581359325
-0.2084456655777049
-0.011776571498579
-0.01161283326875441
-0.06769535271396192
-0.009474529593057461
-0.5151116634823238
-0.1229888980430934
-0.01896925678963843
-0.001366554800038761
-0.02427078758992981
-0.2875462559117729
-0.2735048082352882
-0.007108932721587522
-0.01770754824761209
-0.002127857801069671
-0.343958755298338
-0.02827856784931623
-0.02916825347675256
-0.01250481352885995
-0.01975869703633814
0.05110354324558173
-0.1088914016982836
-0.01378077329556693
-0.02073649980918599
-0.04285072689121185
-0.01820221169360124
-0.01614529512675327
-0.02336476077873404
-0.0668322033072745
-0.0118660037015667
-0.0190647743789755
-0.008532036317868766
-0.0008528528647564266
-0.02954959391847852
-0.001553501547039071
-0.00230025784884564
-0.006097018739804612
-0.02561428638552579
-0.008011346103907416
0.00157873751564852
-0.004155999989367181
0.001147306039968998
0.002511606322495181
-0.008503823498362465
-0.1422001688838545
-0.003032060933232507
-0.001242929387335397
-0.04833615808442882
-0.02149594728039388
-0.0248773212604458
-0.01437826639444714
-0.006086148104469252
-0.02088360491974816
-0.03723138071325533
-0.01401636647457368
-0.01279493988814232
-0.01194296589319207
0.006743230225202164
-0.01023326015427474
-0.01205286955010953
-0.01126578928522276
-0.01072688406404703
-0.01004868159332702
-0.01141786558877933
-0.01413431432666929
-0.3112739909498769
0.06117205992909105
-0.0153880704697901
-0.01674270868256161
-0.01305009268237821
-0.01237968574707982
-0.00873573970615496
-0.09802059381893892
0.008985650085167111
-0.01378454692552018
-0.01476635355504421
-0.01081560908279893
-0.05338108343136581
-0.009839375906034229
-0.01387646558729231
-0.009221632855780348
-0.0007236338637303314
-0.009713652469613258
-0.01095595797721508
-0.02487516914900196
-0.0162793577249426
-0.01189641753982173
-0.0133176163763798
-0.007961310680302626
-0.01291109015950304
-0.01157425498694501
-0.05710657769458682
-0.01293113440323064
-0.01139397837943844
-0.008661661107982497
-0.01487335906773929
-0.01399382775886616
-0.01574096077737858
-1.380861396029918
-0.09814786095788143
-0.01308510869715454
0.02330292103146994
-0.1659198279048211
-0.09289059503457622
-0.01134717620444567
-0.0140686258145824
-0.2559037221559271
-0.03094377712041842
-0.02059726813639857
-0.01089222333868202
-0.01967539527535814
-0.01102443829449427
-0.03069014735700335
-0.4163474738053665
-0.01226140174576012
-0.01409983035419062
-0.00487373241805293
-0.01056751161212465
-0.009628521283291995
-0.01432220270281332
-0.009219311589603945
-0.0261317786226472
-0.01127211213920591
-0.1609885495355843
0.01755944549810244
-0.007741451253902264
0.003163723234597293
0.01328435398976513
-0.04721883073947602
0.03006637549060021
-0.01286904285906163
-0.1359918198361666
0.2819650970902142
-0.007282677219327718
-0.01316163260689349
-0.008410237710312173
-0.03320963308385912
-0.1221005538663453
-0.01300727255351394
-0.01235539796126393
-0.01699512528104804
-0.01357662606277446
-0.04096704931706029
-0.2134461254468684
-0.01154598692630576
-0.0410067109392847
-0.03992826312535302
-0.1647790837124515
-0.1656633347081728
-0.1418327052852235
-0.2569942693584885
-0.007253363492536672
-0.02127930104420227
-0.0143784869770991
-0.01275780033109369
-0.03283418743121821
-0.0243880408510687
-0.01445292835747454
-0.01503685001232648
-1.083915230565716
-0.00552420547320595
-0.01365100501503635
-0.01846454138889587
-0.01938272270046343
0.002172963248748685
-0.01409647277150801
-0.02797565274738438
-0.1650214195897865
-0.01359729068201585
-0.02211679152525687
-0.01384240148322974
0.001386583718578439
-0.179477922501066
-0.0133133625127373
-0.1417066976228371
-0.01600945981096185
0.008898759703387783
-0.01458727332749153
-0.0230714401343173
-0.01570011258387113
0.00479291434758208
-0.2793638452655911
-0.02547001037376539
-0.01604397792992825
-0.005113504394175122
-0.009360271128552946
-0.03058918845096448
-0.01435383633807647
-0.02041725035250943
-0.02133292923542477
0.01202510858824132
-0.1013475778757497
-0.02212592480641236
0.009201519175717841
-0.05041331276260985
0.1568855295567948
-0.1024976256323675
-0.3223295369741974
-0.03048665011516558
-0.02542703424870849
0.1488616166742897
0.08516611913192312
-0.003271523414427727
0.04987314725133888
-0.01563110698791666
-0.01471070675916758
0.002233308511309484
0.01203535854075496
-0.06725434605141657
-0.005554820420899431
-0.05772288460878685
-0.02222585438493425
-0.01571388630454948
-0.03652773848399871
-0.03291731166044014
-0.00664089601482594
-0.01500201532335382
-0.03945979326173108
0.03737291600361589
-0.03888157970629486
-0.01354510487519361
-0.1158727678347931
-0.03196471986352994
-0.03841895509858335
-0.6790680898791174
0.01854453327208936
-0.01093770948151799
-0.005320553239249778
0.1604280314414838
-0.0835647159891853
-0.03493647547726137
-0.2478266280339582
-0.01656638676324219
-0.01660169546918612
0.06089232807131122
-0.1855533562675149
-0.2264408230930837
-0.1989725131855403
-0.6882346868842077
0.005377226918603816
-0.01760164649107164
-0.01653359993389022
-0.07819111602572466
0.1176247479056352
-0.02119369049920615
-0.2464803271045786
-0.03488458432306046
-0.006449235337734054
0.2768491781965926
-0.01129959957776234
-0.09415487584685742
-0.148343957069532
-0.004811529855275862
-0.04033225526469105
-0.04749253290817074
-0.2067660664897156
-0.008865338849350092
-0.04241219510412085
-0.002492586609655463
-0.5524707713916669
-0.2008968798946568
-0.1751531058790347
-0.02269870899804964
-0.006835562833610648
-0.05969314228118613
-0.05841331220753809
-0.01491608988432123
-0.06727968393897073
0.002799267931917225
-0.01837256596017714
-0.09512185324101123
-0.2659163277036522
-0.007651806813934773
-0.02628738314865615
-0.02209427738121109
-0.0739482099456913
-0.09140549489987586
-0.08752106763861715
-0.01163476837381055
-0.9295187366850705
0.1604778070803934
-0.07948602898357288
-0.2581269101982795
-0.04266981266152827
-0.01046438727149967
-0.2513719355422289
-0.1826037757499044
-0.03350450592320028
-0.1276634111373793
-0.01879064542724582
0.5626260145273725
-0.02377629885756629
-0.2300252457206398
-0.0262252872713714
-0.005330752196780536
-0.01185711055666687
-1.256026624315787
-0.1838181526364137
-0.2347675736072689
0.005417887445894977
-0.03680787108299622
-0.2535481518608462
-0.06518753840784985
-0.05082232455664431
-0.1413042818288914
-0.1927966966304873
-0.06750300371488069
-1.23257451012658
-0.1428529037918244
-0.5174331343721175
0.07853997902310834
-0.007017956613163813
-0.02200584832920904
-0.04229316061314674
-0.04098183982613982
-0.02881157034214257
-0.1319005131337064
0.07962209474610664
-0.002788175467824701
-0.009725969135323854
-0.5823878122875359
-0.8664561432086525
-0.1871605216665561
-0.00811595692095481
-0.1379181704764099
0.001182652582784944
-0.0007523648153714918
-0.001921221468608726
-0.05981448538113228
-0.2399087459419924
-0.01342124913791293
-0.124650496425469
-0.1549061833759816
-0.01323635592169813
-0.0360040063308887
0.02141380028332766
-0.05710757497629695
-0.06937621431224796
-0.5047096302502512
-0.242654344456837
-0.0811249119344641
-0.07207656868239758
-0.01993446588984038
-0.1233475066095076
-0.1524821104344756
-0.07471732990087672
0.0241449775340601
-0.08398500897250635
-0.0477217653977015
-0.01490542909559121
-0.1072368531860221
-0.2711286184517636
-0.05637383755186298
-0.01852484804464079
0.0006760394115909955
-0.01000553942147597
-0.01115446135095276
-0.2163577911989353
-0.01511761026187511
-0.2232975097043887
-0.01036940807916625
-0.06563549864769651
-0.003737915103863624
-0.02319308400621411
-0.3759067224603142
-0.9057993869588408
-0.01133596856115538
-1.051493261617915
-0.6156720298021812
-0.01068747226865479
-0.6540582795813141
-0.1750512909554771
-0.005769302942949124
-0.1312411418304468
-0.01703229570671224
-0.1210862446270747
-0.06774636293153455
-0.07609946995680018
-0.005093537227414208
-0.002625634986064157
-1.3341471724825
-0.0111068710539494
-0.1853098210508432
0.000520688694628871
-1.014565372431751
-1.229706287525369
-0.08209746114112451
0.02025236115636981
0.1642982862564535
-0.004702839557447011
-0.02303626181693821
-0.004218439164873128
-0.2540582708648318
0.3662568034515157
-0.04071025237646744
-0.2097789026892455
-0.01491119959852994
-0.657978168102163
-0.07552013891191152
0.1915238112754921
-0.2825889287180335
-0.04966732399977295
-0.06851984778128134
-0.01589950044816302
-0.02174291832971069
-0.5726288963381682
-0.1438175985859687
-0.08537687620694738
-0.1286879756034454
-0.5579001334752224
-0.04402076373868579
-0.9106026479889024
-9.344516689640269e-05
-0.2366974050658673
-1.045880416826325
0.1692486911922642
0.2924521565291849
-0.1834941133217429
-0.1940060119853705
-0.2062570042011374
-0.06838141534860126
0.02289766821236432
0.04982507324097148
0.00406487977070123
-0.166870050617221
0.0255602328792858
-1.352333826668161
-0.08478977366525661
-0.4715266149083923
-0.3287455196085833
-0.2024805570133124
-0.1752582156413348
-0.01691320056037635
-0.015460686414275
-0.1070163985779223
0.1704846452291632
0.3858304328757264
-0.2182516407342265
-0.1398610316226646
-0.2400829134865727
-0.06228076758312893
-0.1498325522591532
-0.1618375830478453
-0.1251603963097468
-0.1228856118694113
0.4668940337478638
-0.267487379377212
0.4305276298339727
-0.6015984947393448
0.07020213764527398
-0.2054828178030707
-0.06579628429210284
-0.0735044184225947
-0.8750966893639196
-0.2221371225326638
-0.1892778627682179
-0.3450840661499278
-0.4557648721987558
0.5707395667520028
-0.2053557471809659
-0.0001774385576353199
-0.07124334925700868
0.3431994404554113
-0.03795223032881122
-0.130652018039961
-0.1783142500822809
-0.06350001165717738
-0.01652892002502844
-0.1935443907176846
0.1927725071890171
-0.01280784929363279
-0.09576120463589829
-0.1674845946837008
-0.3132304723624735
-0.3145752455377876
-0.06395337630823759
-0.01029062216001036
-0.07724187713597896
-0.6569663187661566
-0.6673314492940307
-0.339809281646839
-0.05742244966498658
-0.05234534245760166
-0.02548205423788856
-0.06712394827532692
-0.05832347660648256
-0.3570218570538168
-0.9542960100334615
-0.0101790478265447
-0.08246087191180458
-1.13430696577219
-1.028359439248469
-0.1037392820011507
-0.03799753390373559
-0.07035318501100243
0.3910615896432093
-0.3455904992482323
-0.05060882078552539
-0.5961587516314067
-0.1220506906699126
-0.2542105918674838
-0.2090001518324697
0.4744104152779771
-0.625197865572497
0.07261054236426523
-0.02960370548175352
-0.5552391433083474
-0.05095648014868943
-0.3595313052032238
0.1063170583187902
-0.1892460721452165
-0.05949958199783947
-0.1384633938798123
-0.3637520384289237
-0.08907737742372406
0.5140403334442563
0.08503398810660771
0.4712946919100471
-0.1065440794743815
-0.1985287750337204
-0.5241778953626808
-0.1296757639869779
0.02734483694481266
-0.05313723873281372
0.1033755278552835
-0.3089186860823016
0.2362023619104981
0.009186185350325889
-0.003186180999191195
-0.515321078678124
-0.1865609094508814
-0.08314322354673621
0.5814805310470424
0.1381953233504198
0.3464533540895628
0.2258826941369754
-0.5590965781892261
-0.2060122967407994
-0.2208331306675373
-0.2376007004695815
-0.05992052600192845
-0.696836292237486
-0.1950592198473809
0.3065658293654844
-0.2041143306391069
-0.01115501896883494
-0.1732456638530489
-0.009022819329992686
-0.1562619394129496
-0.4325197429398038
-0.0767459052474581
-0.196804285338178
-0.07117735338769669
-0.08837508291015428
-0.1462352876415374
-0.07345772574516039
-0.4568533923514279
-0.4167780428887982
-0.02680936631503122
-0.07376998254276962
0.3265462527409034
-0.2454979169053772
-0.1858563091229965
0.5258346029960316
-0.2088645783140992
0.01726100160220483
-0.4472735673794386
0.04582727786376433
-0.06256520264416075
-0.1497363082753352
-0.5800218430650448
0.1623662245886709
-0.5828761149228855
-0.5317321351420444
-0.1066455963966739
-0.5049413304545307
-0.03745803818641121
-0.1394473205858621
-0.4080625522415883
-0.01632936530484541
0.286198277489719
0.4894642443360706
-0.1574223855271697
-0.008648844228453207
-0.07231196045975699
0.525400180578548
-0.03351603536153817
-0.4365737767854167
-0.03281376805101369
0.4603205528137807
-0.01431231238984363
-0.5407325581483958
-0.2455424965196491
0.1754558744106397
-0.3083560020051277
-0.1774209050477865
0.05224083562986085
0.03409377344216693
0.05387130895227739
-0.2971718605291855
-0.1571577826407584
0.4127664930929194
)
;

boundaryField
{
    FrontBack
    {
        type            empty;
    }
    Top
    {
        type            zeroGradient;
    }
    In
    {
        type            zeroGradient;
    }
    Bottom
    {
        type            zeroGradient;
    }
    Out
    {
        type            fixedValue;
        value           uniform 0;
    }
    circle
    {
        type            zeroGradient;
    }
}


// ************************************************************************* //
