/*--------------------------------*- C++ -*----------------------------------*\
| =========                 |                                                 |
| \\      /  F ield         | OpenFOAM: The Open Source CFD Toolbox           |
|  \\    /   O peration     | Version:  2412                                  |
|   \\  /    A nd           | Website:  www.openfoam.com                      |
|    \\/     M anipulation  |                                                 |
\*---------------------------------------------------------------------------*/
FoamFile
{
    version     2.0;
    format      ascii;
    arch        "LSB;label=32;scalar=64";
    class       volVectorField;
    location    "1108";
    object      U;
}
// * * * * * * * * * * * * * * * * * * * * * * * * * * * * * * * * * * * * * //

dimensions      [0 1 -1 0 0 0 0];

internalField   nonuniform List<vector> 
808
(
(0.7562499433601547 -0.01749681258049563 0)
(1.031426646170495 -0.0126035042134014 0)
(1.113111471558903 -0.005785331279638067 -1.775555534644422e-20)
(1.085117804752915 0.01261018311849695 0)
(1.36496317584766 0.01587839531180713 -3.902870575203485e-19)
(1.038714013400795 -0.009330517341964318 -7.189504978130742e-20)
(1.013701735061418 -0.02101737226245303 -2.343495401857908e-20)
(1.07887338358478 -0.00535420182594369 9.00344786787884e-21)
(1.254790287751432 -0.01927988974524479 6.356978995910821e-20)
(1.084742468968085 0.01048358029599952 0)
(1.012108910331513 -0.007703437904113015 0)
(1.306755463988037 -0.0524013179113149 -3.553687426723579e-19)
(1.08606847075022 -0.001894683964461998 2.035506603715482e-20)
(0.6751372674340257 0.006388651271997121 0)
(1.282790618368975 -0.1131932550148015 0)
(1.081399553055949 -4.704339880927945e-05 -3.82884866431235e-20)
(1.229545881672587 -0.143677810421844 -9.6846828381123e-20)
(1.073911971080238 1.126203528771188e-05 3.17580531653501e-20)
(0.9923752276180899 0.004242093419575431 0)
(1.026272981852317 0.009535305413953216 0)
(1.036389058366496 -0.009706826801585524 0)
(0.9874684864115486 0.04436571088056818 0)
(1.051141270937987 -0.005921819826425315 5.548697145903933e-20)
(1.05342833876173 0.009283598959898087 0)
(0.932519117651186 0.1968392407169725 4.609834401115389e-19)
(1.166969246199831 -0.08482867493683929 0)
(1.186114041112764 -0.01808605893372978 1.586356968081083e-19)
(1.077438255225458 0.009443338021387564 5.195208509083591e-20)
(1.083831081512855 0.002323133985399704 5.058440970988156e-21)
(1.071874385799358 0.03088882248650856 0)
(1.075455006478875 0.002744895770732517 -1.173524494984256e-20)
(1.032952010759808 0.006792576761967806 -1.95877427792383e-19)
(1.059904586503661 0.01481070741077903 -2.382727695356885e-20)
(1.089108766483117 0.005456858367839103 -2.92996270420185e-20)
(1.120098273351966 0.03949317265237165 0)
(0.7551833661324296 -0.1242763821416986 -4.535806297912094e-19)
(0.9546924891943546 -0.005876313058399146 0)
(1.068877444105436 0.02232421716643088 0)
(1.068820726253697 0.007343100330930756 0)
(1.073653934018242 0.008992394247686296 -2.836515597478347e-20)
(1.092155213044796 0.0247015455467295 1.115607888611664e-19)
(1.150800182930917 0.004147508305727592 2.185412055190246e-19)
(1.09601224439988 -0.00232099941405377 0)
(1.015716842141838 -0.008983086945105436 0)
(1.134388414877907 -0.09525472488303105 -1.633418484563632e-19)
(1.044102355335059 -0.01158373881998848 -7.969865329359274e-20)
(1.058205214399192 0.02662240359530332 -2.80453604493296e-20)
(1.231866598289884 -0.1118249458937147 -5.619595873759984e-20)
(1.06766182718158 0.01214974601244121 -4.24750809974792e-20)
(1.258101810588812 0.01860007983695398 0)
(0.9962332512846428 -0.01883014238983325 2.112259256541085e-21)
(1.044631388248568 -0.001810551032063016 0)
(1.087641441933757 -0.002114047428612717 0)
(0.9992692743104012 0.006676868276917916 -1.832153064110996e-20)
(1.250380142269593 0.03486290479711921 -2.324489971346604e-19)
(1.063656823042266 0.01816259544790841 6.127375756072551e-20)
(0.9920317916285561 0.009130271415588706 0)
(1.020648457960937 -0.00802416261699697 2.360184078863506e-20)
(1.107348315022372 3.636325329787289e-05 -1.199376112339762e-19)
(1.061217304655534 0.03099066984677181 0)
(-0.08348632190187497 0.009730332236588162 7.204883421716581e-20)
(1.155279060358026 -0.05141634923429108 -1.916503582578673e-19)
(1.007047075154072 -0.007147553972270057 -2.592854219242534e-20)
(1.184928456722087 0.07053735961683395 -1.236791416219171e-19)
(0.9981975246906188 -0.00937286897532846 3.008352725993186e-20)
(1.08427972205169 -0.005512546363004471 0)
(1.246891595255026 0.09982303234620107 0)
(0.6960638296472246 0.003200433604827686 -7.479696297200222e-20)
(0.9894795864128565 -0.0133125030349513 -3.134504750585183e-20)
(1.461817672943497 -0.01736247791501835 4.494526232311074e-19)
(1.060487775473253 0.007594475633796139 -6.778085923216692e-20)
(1.36927130141919 0.09827068235860943 2.91579085465301e-19)
(1.054740591945516 0.006891502216983952 -1.897537034734216e-22)
(1.081221891539842 -0.01385131175998703 -4.481683202841027e-22)
(1.165615813527614 -0.2364879937594703 0)
(1.021719703766773 -0.01458576032200228 0)
(1.017028234224997 0.01767468317596543 -3.131045453309535e-20)
(1.384673991539414 0.3487235967971293 4.150828670262775e-19)
(1.097109450123045 -0.04234512175732266 9.352146391471932e-20)
(1.045138363151547 0.2090620078944659 2.540474458888202e-19)
(1.125921777912045 -0.06056818902897875 1.150771042557312e-19)
(0.9219879543192665 0.005125684583580953 0)
(0.9754023915500245 0.01851840519562911 0)
(1.004138522758152 -0.04900673174386026 2.686795899934341e-21)
(1.010128532782924 -0.01300335952047963 7.515058305680734e-21)
(1.029755953749868 0.02635301939235688 1.400195294516681e-20)
(1.531261292440102 0.03687020782209384 3.275390070511069e-19)
(1.288477068567775 0.07195700922272272 5.488125187736884e-19)
(1.072301331320078 0.003061214120180671 -9.233161136569086e-20)
(1.199470504175368 -0.09183724069583157 0)
(1.033667414342357 0.001892465110125356 1.346558458005426e-19)
(1.164764556858045 0.02302932193966121 -3.231517306038712e-19)
(1.00142614292053 0.03229525690461801 0)
(0.9996261372651739 0.002037950186066304 0)
(1.044514250926606 3.310070521052751e-05 7.727168362413956e-20)
(1.210970466346753 0.1121009982603033 4.15149164746383e-19)
(1.011064543133186 0.006992717763973515 0)
(1.092635012335271 -0.06970950380527396 -1.049271481921374e-19)
(1.150170747776207 0.03847441078991611 0)
(1.212598821256417 0.0976020612877555 -1.956580501287958e-19)
(1.108087296927176 -0.02867926434027102 -7.657583181604408e-20)
(1.027228515110111 0.01170508734068989 0)
(1.085038621550068 -0.004634659936952378 0)
(1.018883697557462 0.02586467658273024 8.14241174738803e-20)
(1.071352457030246 0.05484260155333048 -9.526969694199724e-21)
(1.10384320930546 -0.004148912742647289 6.235874579820399e-20)
(1.112026146060349 -0.09498246552497047 1.509391808566183e-19)
(0.9624905696557278 0.004126593326768962 0)
(1.066108873799049 0.03111812627424836 3.852915503063374e-20)
(1.169351769240079 -0.07610291572842325 2.342230395419993e-19)
(1.05117275198921 0.04569890687668881 -2.919571201102059e-20)
(1.022504656961972 0.06718003452778007 3.747309719490758e-20)
(1.090349729102797 0.02603534707901761 0)
(1.016045463284327 0.01784135428057237 0)
(1.029006786993549 0.009416378204644627 7.898803309082755e-20)
(0.9486908316938967 -0.03375304526336201 0)
(1.052783850437705 -0.005645158340813759 -7.893266592014007e-21)
(1.343280444347254 0.06001052567039578 -1.588948321962545e-19)
(1.080002082271117 -0.01315931115978863 2.604326979301249e-20)
(0.7439430592500347 -0.001737643578850519 0)
(0.5718731305398436 0.1809909169921269 -9.227650303653888e-20)
(0.7061663580606571 -0.002531770106692736 0)
(0.6988407889031099 0.01463078902268377 0)
(1.077624858354129 0.003656309073051567 -6.79458917000673e-22)
(0.9906428996557906 0.01452904154414788 0)
(1.277821351463592 0.1230149184181396 2.479608990203001e-19)
(1.012352247673521 -0.02779853874571993 -7.898711637593259e-21)
(1.045385134484309 0.02129550316196624 1.792628834294543e-21)
(1.058656680497418 -0.01163125325612484 0)
(1.126653139059503 -0.009126280479039508 -4.970458087530311e-20)
(1.265794169769052 0.1415120549746859 -2.2829868939392e-19)
(1.089347567704309 -0.01121188777563575 -8.54626325426195e-20)
(1.069776576717904 0.02670358144840603 -1.105987296422665e-19)
(1.040708153562607 0.04673205322862312 6.892938398179096e-20)
(1.022548349979197 -0.003770744589173137 -3.454103627725849e-20)
(1.060935933819498 0.02350634521691108 6.079796260155273e-21)
(1.130639939009606 -0.00232921813677537 1.063119822523943e-20)
(1.039640898687693 -0.0157406280711889 -4.806521358726704e-22)
(1.087507348006669 0.03474325545911011 0)
(1.028021002373595 0.01355237778835268 0)
(0.7646756603139152 -0.06092110268165339 -1.812738872584837e-19)
(1.030158161675315 -0.001615961123154631 -6.922165274370608e-20)
(1.130049014875115 -0.006453553166985276 -1.279544390955369e-20)
(0.703430045559742 0.006579434227194841 7.391515883613919e-20)
(1.174738285500919 0.02063038075816965 -1.914485074729123e-19)
(1.132840469928272 0.006179849155977329 5.172059414082073e-21)
(1.128961976355394 -0.0100083203514464 3.477685648677302e-20)
(1.000938961636087 -0.002931462942311244 -7.605600319321375e-20)
(1.101677307980669 -0.06757825595824817 0)
(0.9863338733351206 0.003049411574307021 0)
(1.057884693442088 0.007074124045190753 0)
(1.005209503134977 0.1876558361237801 -2.474860403886605e-19)
(0.7792106143455808 0.01241171758280781 0)
(0.8568630531608368 0.1001653801775511 -8.453334884552344e-20)
(0.07340549052823543 0.03821890045440612 -3.010171811862369e-19)
(1.172529885969414 -0.0293804194145597 -2.228862086374428e-20)
(0.671332680738379 -0.007296741154294026 2.437862154730044e-20)
(1.170790360845065 -0.1011151780713716 6.894454587856869e-20)
(1.122552042211041 -0.005974561193156927 -5.815690220625568e-21)
(1.15538230264228 -0.04763851602623253 2.165906815353032e-20)
(0.1073610075081392 -0.2233236512726479 0)
(0.244730138588627 0.08542028765463823 0)
(1.257949404160821 0.1134729625873204 1.937277941891871e-19)
(1.021190770223094 0.01978420770036871 0)
(0.7378454115190864 -0.006277390641038582 0)
(1.075412888950327 -0.01173132595779002 2.709846835669042e-20)
(0.9748188941992572 0.002793412807252729 0)
(1.294618094556576 0.1316778928413211 -1.58639757517564e-19)
(1.057462476418843 0.01116560599234865 0)
(0.9938488343772309 -0.007231160583499959 0)
(1.06499581465434 0.008292813542899374 0)
(1.006163006185528 0.02081545311689631 1.799065176041892e-20)
(0.9362967967274604 0.01641181279414535 1.088948328844012e-20)
(1.177733634590415 -0.2000136130078519 0)
(1.005214797557194 -0.005183875574865504 7.831588566543226e-20)
(1.059121093055573 0.006417618793687989 0)
(0.7746831143429849 -0.003281414804668079 0)
(1.217579496524756 0.02952339391585303 1.671424800029431e-20)
(0.7049489071153078 0.001340298471280257 0)
(1.43687604903014 0.08886473842361516 -5.308619510146968e-20)
(0.9949718068644094 -0.006597165951886282 1.705633112515227e-20)
(1.273300671574841 -0.0007732494000352464 -2.930312076849419e-19)
(1.059519798535175 0.008916531249513499 1.38935610113129e-19)
(1.000910327485836 -0.0135835771681137 0)
(1.215437612832682 -0.1426922370528302 2.038694545933472e-19)
(0.7331951852446086 0.01378921729189698 0)
(1.0985079323824 -0.005067956742425374 0)
(1.152338666476459 0.06960131829519316 2.016117433657939e-20)
(1.007059820198488 -0.0066923122593511 -3.025782973973287e-20)
(1.120248879643172 0.05309845763408073 -1.764255923735214e-19)
(0.09519997955436257 -0.08549066158498426 0)
(1.071825057625701 0.03873725043466163 0)
(0.6617554832737166 -0.002922727799479204 -6.547424493696529e-22)
(1.012162628289752 -0.0193794234443239 9.692595988600208e-20)
(1.061348414176905 0.0007489873739345196 0)
(1.07562517748771 -0.125526538539323 3.71447596294292e-19)
(1.002826928884628 -0.006203755965735523 -3.448917802993166e-21)
(1.002859566296046 -0.005275807474728614 6.999893073457152e-22)
(1.093918148440394 -0.009328396618497749 0)
(1.020659462441478 0.02059348706331114 -6.301465544636895e-20)
(1.106539698435607 -0.001580683774775788 6.666044069136874e-22)
(1.074440855184241 -0.01134837425848766 6.601463973118393e-20)
(1.085802090021704 0.02230634284516645 0)
(1.33175302272475 0.1638060776736209 0)
(1.002000716789837 0.0001437767817830823 4.415289178140402e-20)
(1.320169848549963 -0.1247824853704893 1.549545847898783e-19)
(0.04614163066392165 -0.1919372567742557 -2.507928316420876e-19)
(1.071279973138907 -0.005471293739984354 0)
(1.115787839262968 -0.002676169063878047 1.19673103437911e-20)
(0.7268173245594751 0.0178294941229734 0)
(1.062077553255265 0.007069561929190575 0)
(0.8700581447012071 0.1659421000691105 4.739483840161824e-19)
(1.272725823885205 0.1344889896136029 1.923802546594739e-19)
(0.6543556036073294 -0.003097929505644247 -6.346929764124093e-20)
(1.040956210017434 -0.0004072376979891002 -7.242015963371065e-21)
(1.05474521122892 -0.0002704079426208957 6.613960380913025e-20)
(1.364303643863907 0.123888234802431 6.779537430635964e-19)
(1.333782251981387 0.2522144101074677 0)
(1.06039593165853 0.00164945048652036 0)
(1.00011742982248 -0.006557578767300559 1.511906615985546e-20)
(0.9930604894120234 -0.008820274347345386 5.490892105046289e-21)
(1.381606677064512 0.2000747311963563 4.245031333302027e-19)
(0.6817583900576644 0.0004996762831509454 9.875286312767727e-20)
(1.0055826348235 -0.002137749794638431 -5.983633735015278e-20)
(1.098205128401066 0.01304390614151221 2.549409830325574e-20)
(0.6694700056588309 0.004988797090636326 0)
(1.066091110610132 -0.01201133097532719 0)
(1.012119260419675 0.1529391190408484 -1.286475950157882e-19)
(1.091396623068416 -0.00895355106717087 -2.47273702108146e-20)
(0.9821131310203939 4.083370560629785e-05 3.284232943851496e-20)
(0.9912108590431955 0.006037484990337003 0)
(0.6382657422209617 -0.001080429375773153 0)
(0.9767767044781391 -0.001170378297333629 0)
(0.6421454608084477 -0.001479374175348334 2.668775922639144e-21)
(1.09043607991121 -0.05595454866027352 1.194404350250001e-19)
(1.113284567573517 -0.001758262334782241 1.198823120129885e-21)
(0.9579102346157377 -0.0008947652140162872 3.903116335940523e-20)
(1.016259085369208 0.01003313782684758 1.706009816349245e-20)
(1.067007377351868 0.0009427044369904737 -2.51457469646541e-21)
(0.6346975336350132 0.008873410514415692 -3.637094204698557e-20)
(1.004170840460568 0.008250415422727956 -8.815327182863642e-22)
(1.036088989674346 0.007368236589334709 5.339736332998323e-21)
(0.9868201607132174 -0.01217926578518707 0)
(0.6099674259405389 -0.0004836239744521133 0)
(1.068692726620512 0.02258796395820893 0)
(1.017015659514374 -0.01615654881925429 1.0428778980431e-20)
(1.023694488992731 -0.009850579674897209 0)
(0.9914843630799355 0.01384718416240257 -9.754812536597885e-21)
(1.010338488185688 0.0009327932179784499 0)
(1.129087758458261 0.0001070956845827664 -1.147728453879617e-20)
(0.03901281995187196 -0.1438107685927241 -3.988238726742302e-20)
(1.035882057284436 -0.01804590571145263 -6.32909640126641e-22)
(1.041247480528007 0.004240268680915186 0)
(1.081005968224514 0.06715729264161413 8.460812637206672e-20)
(0.9680422595098873 -0.002433455958764534 3.110414495765973e-20)
(1.020441001660021 0.01675017217913065 -2.357106965984895e-20)
(1.00156840006916 -0.001228514285986724 2.480522614244072e-20)
(1.039889383247713 -0.006943002560252787 0)
(0.640877937313857 -0.004024796597396215 0)
(1.02579720636228 0.02454516212626857 -7.331295762150385e-20)
(1.084958278431289 -0.005614743784722302 4.861040705608208e-20)
(1.016831626965211 0.005232694549226876 0)
(0.9789758293972509 -0.002376158222957413 -1.953585774989619e-21)
(0.8672508939348417 0.01510661762227305 -9.61244797357256e-21)
(1.014033895741599 0.002607633068548964 -9.979330330812793e-21)
(1.024366292075622 0.005927412512313557 1.85636107369291e-20)
(0.9840714484288808 0.005065495236072362 0)
(1.003179385557785 0.01168370825497912 3.474918659599114e-20)
(1.109479694847169 -3.836585479910611e-05 0)
(0.9259433326114602 0.003307835988651378 -3.134352018115308e-20)
(0.9579938663911511 0.00217246846057342 0)
(0.9137802350687122 0.2091866217910798 5.134962185432215e-20)
(1.010760741805811 0.06677845066203762 0)
(0.9927679882026154 0.004583598745125123 -2.268339611735536e-20)
(1.058302611991407 -0.05353091863316605 -2.881148671584378e-20)
(0.9920141107540846 0.0007108883233258812 3.348018139489952e-20)
(1.010930900200574 0.006286516943396253 0)
(0.9780805223895535 0.0004142901832275909 -3.113689353982483e-20)
(1.170302047689607 0.1044784180768869 -3.426682130952322e-19)
(1.070095445832411 -0.2654700318065638 0)
(0.9929907094696705 0.0009207873725447111 -2.240593216799843e-20)
(0.9764469377850964 0.00206222791725428 5.007249968451338e-21)
(0.9639636805439796 0.005101505601640862 9.958206456715257e-22)
(0.7459126518708885 -0.001049453204745178 0)
(1.123761449220489 -0.08007830579963814 0)
(1.003626438888789 0.003818837200552702 -2.239874598345495e-20)
(0.9061298918366962 0.01144787331311104 -9.698459212326633e-21)
(0.8518600604254709 0.009694624555309374 2.815793134131432e-21)
(1.014317937348464 -0.005217969302626014 0)
(0.9532223776534688 0.009426265993609335 1.41422921647069e-20)
(1.005580929818064 -0.0002558505794375886 -2.3002738276051e-20)
(1.02170736573357 -0.002671129804638984 -2.56421583215228e-20)
(1.114555672540125 -0.001115193853994252 -4.94004501620739e-21)
(1.119706416418583 0.0003481183408919605 0)
(1.013929288225899 -0.01086347357844765 0)
(1.019582211664503 0.001676736691611196 0)
(0.9420851706245851 -0.0008989711822332877 -2.046232125010405e-20)
(1.017854925082893 0.01364102175713607 5.364965085320292e-20)
(1.083439663602464 -0.003520302341825402 -2.246348350775809e-20)
(1.040515668422382 -0.007780743934354239 0)
(1.106832064182607 -0.004280978495624225 1.851847218875906e-21)
(0.994825213986766 0.002542333702320428 -2.222192591161382e-20)
(0.9861570754289791 0.004629925367715585 0)
(1.011216477352542 0.003302780050620167 4.653200163123902e-20)
(1.36774730583942 -0.3147248552903019 -1.132528082605393e-18)
(1.122519141821878 -0.04311491082359502 -1.083698998337723e-19)
(0.9647262824486769 0.003145966785344108 4.557580202926035e-20)
(0.7691920847111272 0.003587385913613456 -3.085362293514761e-20)
(1.222674698907465 0.05388322206145915 0)
(1.225309441597304 -0.1290948799461042 -1.461905734276998e-19)
(1.079358000193039 0.001145280509999272 0)
(1.008138688555959 0.001211767078870273 2.264952273307348e-20)
(-0.1773050830888247 -0.1393741510438374 0)
(0.9939661284965976 -0.004647869254068284 0)
(1.012437392122127 -0.02314575113785421 4.532706847683939e-20)
(0.7063388420959985 -0.0194596288250276 0)
(1.096787275788548 -0.01478341508342752 2.113936046823203e-21)
(1.043199205890511 -0.01051187966367885 1.819414719574899e-20)
(0.6331857173719235 0.004123267439038138 0)
(1.449933391908773 -0.1228226402988309 0)
(0.9864923477480844 0.00129275419263442 -1.081560567953271e-20)
(1.069821549224783 -0.01504653600395973 0)
(1.037864852786334 0.0003819635164619698 2.131073221085684e-20)
(1.081174208563816 0.006498704902802246 0)
(1.010871065768108 0.003624816336300319 -1.056132874699458e-21)
(1.005789703500057 0.003028484370103091 0)
(1.010839867371347 -0.007558443594541333 -1.878470150617215e-22)
(1.00405049720091 -0.02088999517824698 0)
(1.03545732216311 0.0003128468097012872 1.690445948323672e-20)
(-0.177970861998916 0.02760649885308344 2.655724300376778e-19)
(0.8006458520303052 0.02099863196582098 5.212186700238124e-20)
(1.005639195653285 0.001798816799538788 0)
(1.130672737706813 0.01533321692204434 -1.120480623939203e-20)
(1.121398226222909 0.01334108387194639 8.273121150558375e-21)
(1.054560758487016 -0.01293083713465591 -1.283590798031995e-19)
(0.998783187869556 0.01035495319501474 1.090731496252489e-21)
(1.077707335595659 0.003956175534699801 0)
(1.187052418506918 0.05426363360499058 0)
(0.8354328085287077 -0.07685869791233445 4.590169285118005e-19)
(1.095120300150907 -0.0004285498383392832 0)
(1.033368206980519 0.007339599082459967 -7.43690677994029e-21)
(1.042454060139817 0.005166936558682091 6.048677512382104e-21)
(1.055822294811021 -0.06070677662487929 -7.537847349922188e-21)
(1.139513603951608 -0.0006020900422740475 1.671809486437877e-19)
(1.08689143380952 -0.007188632656246152 0)
(0.9944209129415357 0.001379900469522423 0)
(0.9961750678107091 -0.02616519491364395 -2.32648582897662e-21)
(0.9901494449609771 0.00305606271648636 0)
(1.031296133446196 -0.03842604846408645 6.374947549485591e-20)
(1.291400880471415 -0.09236916094942776 0)
(1.043288245599279 -0.0043144702957747 -3.437067227289576e-21)
(0.9861649172682043 0.01703156758437142 -8.547010891650229e-20)
(1.032972978410309 0.04134071516753854 -2.41096492926943e-21)
(-0.08142110971538398 0.1485851508243325 -1.667484337027017e-19)
(-0.06900728218600713 -0.3041101298966009 -1.349719274424771e-19)
(0.89588936438369 0.1418260460075829 0)
(0.2921571756329382 -0.03195378883701893 -3.324318466785922e-19)
(1.005808134893552 -0.0006691924095488302 -1.442584490852351e-20)
(1.063817495423747 0.002691997966089875 -2.111085163695054e-20)
(0.9913699781432016 -0.01914704318231084 2.979988232144653e-20)
(1.02192714000458 -0.03140709086023918 2.570017673466552e-21)
(1.009819230358837 -0.03225881665069073 -6.546701944503155e-20)
(0.9888508194153663 0.004804332205609579 -3.468451982114125e-20)
(0.9928862265351202 0.005071771325248456 0)
(1.025272058711683 -0.002314002299968847 -3.515121815204502e-21)
(1.938940452703351 -0.1557793189400416 1.078030588876471e-18)
(1.043402100904241 -2.007215643347234e-05 0)
(0.9954402312470924 0.008581816126860667 1.552735779412325e-20)
(1.003249834342266 -0.0002559557968884825 4.050604250885052e-20)
(1.159924198375139 0.1443186938528216 0)
(0.9975690995806489 -0.001483523015475576 7.541889381224687e-21)
(0.9491929957962336 -0.0003770062284451915 0)
(1.037835242000661 0.04177172317241553 0)
(1.311133331772263 0.1637326540825372 2.370363874699228e-19)
(1.08462359018885 -0.002898633230932801 2.289427003756537e-20)
(1.017672622889386 0.02983563177823362 4.655173129086718e-20)
(1.08736165188065 -0.004911036370825503 -2.208756401427394e-20)
(1.047102362258178 -0.007427092733729023 -8.097612009833326e-21)
(-0.3846746577997469 -0.05223009981463372 0)
(0.9993439974276166 0.01416834353023985 0)
(0.1084535062441044 0.05540847062819865 -8.871581334005957e-20)
(1.007188551470261 0.02123993607278155 -4.163335200264645e-20)
(0.9973426591616453 -0.01545186655473901 0)
(1.00140842787942 0.005619384211867418 -4.995470296794895e-21)
(1.08181093047355 -0.04245795965702889 0)
(0.9945283230194881 -0.01670359470772256 -7.815820515350538e-21)
(1.098988093994477 -0.06033084303890798 0)
(1.44572973451056 0.1772793314468146 0)
(1.054666970489384 -0.01221001764894016 0)
(0.9902337243850475 -0.0240426275066654 -4.001792926407957e-20)
(0.9994638786518915 -0.0469439330925695 -2.990763341904004e-21)
(1.014193865118217 -0.01889907658822041 -1.790920685752595e-20)
(0.9969788542852008 0.0165484672697578 -5.656324497266558e-20)
(0.995618460669725 0.010604457573136 -1.513249070238789e-20)
(0.9943265056759354 -0.02861109552570528 0)
(1.002938017991458 0.02394705253785724 1.959175426513982e-20)
(1.057539268692614 -0.04159525605276881 0)
(1.11144710735048 -0.03558083365190505 2.631835624271769e-19)
(0.9957678543260595 0.01692472228905854 4.658479758824624e-20)
(0.6150667219619723 -0.008680864764285565 0)
(1.137347580403146 0.1513853507262967 -3.756873924310077e-21)
(0.8563826938585237 -0.09267953324878504 0)
(1.137677162475781 0.07322412899160727 -2.690795571172686e-19)
(1.317592944095483 -0.3895530437767012 1.302558713603202e-19)
(1.069611310397844 0.0618871814372276 -1.267438525509176e-20)
(1.010734471324541 -0.03227289821685765 0)
(0.9563470180645842 -0.216741439747712 0)
(0.5130823094998913 0.1531613241485732 0)
(1.015996902879339 0.009109466974172229 1.30750614492328e-21)
(0.6873186917795859 -0.0302573383954499 0)
(0.9995901607629336 0.0174345794131726 3.584421031688852e-20)
(1.02593196054751 -0.005235822092696582 -2.792403779361507e-20)
(1.078993035489932 -0.008101586031083789 2.785544043230405e-21)
(1.045732922860429 -0.02183395960648319 3.161069886295756e-20)
(1.042389017102043 0.01175382655630955 0)
(1.065093837651273 0.02437625038600085 -9.219723754415347e-21)
(1.04939926388677 0.03565133218976592 -1.828818545958219e-20)
(0.9831045480933069 -0.02280028796227045 0)
(0.6249228511425671 0.005100455303811626 9.173620757221814e-20)
(0.8941514638449397 -0.00589556362678664 -8.849021074214135e-20)
(0.9093820351692594 0.005302856462989679 1.448271544666556e-20)
(0.6295749952990395 -0.006416967204430215 1.405194246795166e-20)
(0.9798667948836575 0.001368012958323496 2.538739033238376e-20)
(1.004442985651049 -0.01744853372758355 -3.594750220147162e-20)
(0.9798841118159045 -0.0364362080503315 -3.402106156384768e-20)
(1.085548850731709 0.001646718588053807 0)
(1.02024868145789 0.004779981760410187 1.010591657057111e-20)
(1.13214688963302 0.04903848308869049 1.302177042340142e-19)
(1.031800000898499 0.0403360356191112 0)
(1.022554474161476 0.002534821453906142 0)
(1.586636077474811 -0.1673648258614671 4.42143102356437e-19)
(1.056018381152334 -0.04767430285665616 0)
(1.016605085028892 0.00870405227135997 -3.82688179119214e-20)
(1.084200424604797 0.004499971475748316 0)
(0.484255096689772 -0.02125787232016841 0)
(0.007237906815657473 0.02604873453145076 0)
(0.9911158282041815 -0.02437735490568796 1.217660901906408e-20)
(1.302667078863662 -0.09548777249622716 3.763817675128792e-19)
(1.034100872667494 0.03492091001109087 0)
(1.022224427510561 0.003461668605342241 -2.248470922940844e-20)
(0.9562925815731078 -0.1603731672758149 1.475673645451857e-22)
(1.255973560102924 0.07903531651260624 0)
(0.596529730560608 0.7279775488346122 0)
(1.314449689560393 0.1490097386555945 1.100129015629155e-19)
(1.680145253169617 -0.02498569664274239 0)
(1.048976809522959 0.1119682860014948 0)
(0.7080619767791678 -0.02323007132683243 3.518019918645444e-21)
(1.049556220313691 0.04333313447832423 0)
(0.7531400641771947 0.1258779172162701 1.250207270274279e-19)
(0.9967630876115426 -0.01654576827571512 3.568604604674813e-19)
(1.03692792809548 -0.04258741135477333 2.786936011035208e-20)
(-0.3830042961051681 -0.0133895579760953 0)
(1.072198700849521 -0.0164732533058729 0)
(1.087533630342013 -0.003211141513653098 0)
(0.6495495993560078 -0.5059150524210093 -2.457622677263131e-19)
(0.9897543812114284 -0.001543316535808053 0)
(1.092430047016305 -0.02122817762656877 4.377231775832059e-22)
(1.186784951095893 0.1212817157537687 -1.989107894713067e-19)
(1.093279088305695 -0.04938761134303541 0)
(1.00615636518432 -0.02128255110448952 0)
(0.7845996430408159 -0.177582860559936 -1.630609366483615e-19)
(0.8805683817970015 -0.1273977641097422 1.522626425771794e-19)
(1.030107607261979 0.01474889412477258 -2.238556076748312e-20)
(1.023109619056634 -0.008932778216166533 -4.611169850140571e-20)
(0.8811516725775946 0.01471727916103444 2.284594446271133e-22)
(1.507657055193995 -0.1938488109577888 0)
(1.307475035488227 0.1197477289755793 3.037042342947183e-20)
(1.243509586942803 -0.07297314068367873 -3.224277409406227e-21)
(1.095682633839548 -0.01843357680549049 -3.878928120637194e-20)
(1.035840340393335 -0.01216814429532595 2.537868978672852e-20)
(1.09284108696357 -0.03905079343756502 9.100947305468605e-20)
(1.03163933903318 0.02037500934136944 0)
(1.046737021944569 -0.03795706960561818 0)
(1.115959790894426 -0.008936221081218417 0)
(1.092009798205683 -0.03913645045298527 0)
(0.998134558662221 0.01121912936138261 0)
(1.148234378762055 0.08139144893122205 9.592808132473349e-20)
(1.337238006284553 -0.1498729675366896 0)
(1.035039401626421 -0.02559336357258115 -2.150611361998273e-22)
(1.049167388367775 0.05041313699960913 0)
(1.010286574336654 0.0145410966826602 -3.965958027475261e-20)
(1.033926488356491 -0.007367119153819012 9.082441229824664e-21)
(1.088919114723157 0.01348185793714195 -3.271443387284345e-20)
(1.085468745288528 -0.02802223429664125 0)
(1.070926522416731 0.00633591647189336 0)
(1.108293165990754 0.09448221146964395 -1.423727694952697e-18)
(0.9357029725497481 -0.1507666297104998 -7.058329979721028e-20)
(1.167893700521085 0.1144715443532295 1.135530325131107e-19)
(-0.4798932576281971 -0.003089956640598842 -2.901207725517294e-19)
(1.018024072761886 0.02868641221372222 -8.885826575199269e-20)
(1.004513256315791 0.00462963094794127 0)
(-0.2745501513513223 0.00976221610033487 3.550926293034849e-19)
(-0.04146419448225341 0.2859012923080372 7.860913706124935e-21)
(0.9952181078111809 -0.006249007645834904 9.853895066616176e-20)
(0.1877271934827206 -0.04299657520506789 1.368051697086267e-19)
(1.086064780012328 0.08230277289067513 1.442817214915211e-20)
(0.09409009696139414 -0.1120545414518853 -5.547253949841101e-20)
(1.108319030311903 0.002965081040832481 0)
(1.103839034059365 0.2569544842379207 0)
(1.021381598666888 0.02145676719345353 -1.738600111277983e-20)
(1.068178005740148 0.05034751988200344 0)
(1.027051417850477 0.02453964341562959 -9.127584450264882e-21)
(1.265020280228422 -0.5497589211132913 8.070144479568162e-19)
(-0.1196450487670256 -0.2226390417308028 2.185391448890007e-19)
(1.300272471432316 0.1175151629732197 -6.340260401929088e-19)
(1.121361313539402 -0.00356298689603577 0)
(1.120936940690279 0.09908281627822355 0)
(0.5278805307566926 0.08120200052260548 2.515087965594382e-19)
(1.023854281434142 -0.02040434067372512 9.309525919677456e-20)
(1.006599334382202 -0.02364510661776905 0)
(1.209949368096473 0.2702530322457585 -9.499027134920096e-20)
(1.264861479625673 0.1356634349688219 -1.591467390431027e-19)
(1.026640168997561 0.003347280057035924 1.531869527841076e-20)
(1.302072898728557 -0.08482353820571775 -5.021745475298801e-19)
(0.2946368718240762 -0.01564646339907751 2.720729526988792e-19)
(0.8255848324153037 -0.1454382357616248 6.693844873158231e-19)
(1.040707791566851 0.0479986328306288 1.06405766311093e-19)
(1.038767530157641 0.001037404242054843 1.880387149139877e-21)
(1.001377956077615 0.01937096926477116 2.991501173353574e-20)