/*--------------------------------*- C++ -*----------------------------------*\
| =========                 |                                                 |
| \\      /  F ield         | OpenFOAM: The Open Source CFD Toolbox           |
|  \\    /   O peration     | Version:  2412                                  |
|   \\  /    A nd           | Website:  www.openfoam.com                      |
|    \\/     M anipulation  |                                                 |
\*---------------------------------------------------------------------------*/
FoamFile
{
    version     2.0;
    format      ascii;
    arch        "LSB;label=32;scalar=64";
    class       volVectorField;
    location    "1";
    object      cellDisplacement;
}
// * * * * * * * * * * * * * * * * * * * * * * * * * * * * * * * * * * * * * //

dimensions      [0 1 0 0 0 0 0];

internalField   nonuniform List<vector> 
256
(
(-0.0222922 0.00278847 0)
(-0.0225847 -0.000655175 0)
(-0.0213039 -0.00371872 0)
(-0.0186611 -0.00580919 0)
(-0.0151191 -0.00659865 0)
(-0.0111607 -0.00608303 0)
(-0.00716796 -0.00451271 0)
(-0.00333502 -0.00226787 0)
(-0.0661626 0.00699693 0)
(-0.0666864 -0.00264465 0)
(-0.0632319 -0.0111474 0)
(-0.056336 -0.017133 0)
(-0.0470537 -0.0198283 0)
(-0.0365442 -0.0191639 0)
(-0.0256858 -0.0156186 0)
(-0.0149406 -0.00993979 0)
(-0.108028 0.00972427 0)
(-0.10835 -0.00532972 0)
(-0.102969 -0.0185145 0)
(-0.0927428 -0.0279986 0)
(-0.0791037 -0.0327629 0)
(-0.0635495 -0.0326666 0)
(-0.0472752 -0.0282486 0)
(-0.0308431 -0.0203614 0)
(-0.148053 0.0110332 0)
(-0.14785 -0.00877764 0)
(-0.14079 -0.0260509 0)
(-0.127983 -0.0387265 0)
(-0.111066 -0.0456653 0)
(-0.0917558 -0.0466831 0)
(-0.0713649 -0.042285 0)
(-0.0504771 -0.0333149 0)
(-0.186382 0.0109156 0)
(-0.185448 -0.013105 0)
(-0.176917 -0.0339983 0)
(-0.162126 -0.0496295 0)
(-0.142816 -0.0588236 0)
(-0.120789 -0.061369 0)
(-0.0974207 -0.0577162 0)
(-0.0732561 -0.0486632 0)
(-0.223158 0.00930912 0)
(-0.221345 -0.0184647 0)
(-0.211606 -0.0426328 0)
(-0.195302 -0.0610506 0)
(-0.174271 -0.0725604 0)
(-0.150334 -0.0769395 0)
(-0.124945 -0.0746207 0)
(-0.098543 -0.0663466 0)
(-0.258513 0.0060833 0)
(-0.255785 -0.0250864 0)
(-0.244969 -0.0522382 0)
(-0.227513 -0.0732972 0)
(-0.205319 -0.0871905 0)
(-0.180129 -0.0936716 0)
(-0.153454 -0.0931593 0)
(-0.125714 -0.0864092 0)
(-0.292625 0.00102528 0)
(-0.288852 -0.0332091 0)
(-0.277002 -0.0630818 0)
(-0.258674 -0.0866893 0)
(-0.235723 -0.103025 0)
(-0.209854 -0.111874 0)
(-0.18248 -0.113563 0)
(-0.154095 -0.108974 0)
(-0.325522 -0.00613503 0)
(-0.32053 -0.0431177 0)
(-0.30772 -0.0755162 0)
(-0.28871 -0.101601 0)
(-0.265299 -0.120463 0)
(-0.239129 -0.131886 0)
(-0.211521 -0.136179 0)
(-0.182993 -0.134293 0)
(-0.357113 -0.0157326 0)
(-0.350804 -0.0551957 0)
(-0.337072 -0.0899692 0)
(-0.317496 -0.118501 0)
(-0.293792 -0.139968 0)
(-0.267534 -0.154185 0)
(-0.240001 -0.161441 0)
(-0.211629 -0.162713 0)
(-0.387314 -0.028259 0)
(-0.379592 -0.0699697 0)
(-0.364918 -0.106986 0)
(-0.344798 -0.137945 0)
(-0.320841 -0.16212 0)
(-0.294558 -0.179349 0)
(-0.267171 -0.189884 0)
(-0.239075 -0.194791 0)
(-0.415986 -0.0443945 0)
(-0.406669 -0.0881088 0)
(-0.390956 -0.127238 0)
(-0.370229 -0.160639 0)
(-0.345934 -0.18767 0)
(-0.319472 -0.208142 0)
(-0.292052 -0.222291 0)
(-0.26409 -0.231265 0)
(-0.44253 -0.0649533 0)
(-0.431412 -0.110328 0)
(-0.414472 -0.151452 0)
(-0.392962 -0.187352 0)
(-0.368139 -0.217412 0)
(-0.341212 -0.241444 0)
(-0.313262 -0.259675 0)
(-0.284788 -0.273139 0)
(-0.465893 -0.0907514 0)
(-0.452739 -0.137477 0)
(-0.434313 -0.180496 0)
(-0.41163 -0.218955 0)
(-0.385761 -0.252281 0)
(-0.357714 -0.280298 0)
(-0.32846 -0.303096 0)
(-0.298394 -0.321555 0)
(-0.483904 -0.122314 0)
(-0.468467 -0.169856 0)
(-0.448277 -0.214419 0)
(-0.423973 -0.255362 0)
(-0.396304 -0.292227 0)
(-0.366011 -0.324756 0)
(-0.333815 -0.352897 0)
(-0.300015 -0.37713 0)
(-0.491129 -0.157447 0)
(-0.473331 -0.204828 0)
(-0.450975 -0.250236 0)
(-0.424276 -0.293235 0)
(-0.393491 -0.333409 0)
(-0.358917 -0.370372 0)
(-0.320886 -0.403769 0)
(-0.279764 -0.433277 0)
(-0.00336563 -0.00216835 0)
(-0.00617685 -0.00423801 0)
(-0.00831329 -0.00646361 0)
(-0.00969812 -0.00897553 0)
(-0.0102401 -0.0118161 0)
(-0.00982819 -0.0148914 0)
(-0.0083907 -0.0179457 0)
(-0.00596224 -0.0205595 0)
(-0.0147995 -0.00980192 0)
(-0.0220254 -0.0158707 0)
(-0.0271762 -0.0224542 0)
(-0.0301291 -0.0298434 0)
(-0.0306506 -0.0380327 0)
(-0.0285123 -0.0466652 0)
(-0.02361 -0.0549675 0)
(-0.0161736 -0.0618068 0)
(-0.0301576 -0.0204064 0)
(-0.0403792 -0.0302039 0)
(-0.047223 -0.0409167 0)
(-0.0505908 -0.0528837 0)
(-0.0501371 -0.0659502 0)
(-0.0455539 -0.079413 0)
(-0.0368068 -0.0919981 0)
(-0.0244309 -0.102065 0)
(-0.0489648 -0.0338913 0)
(-0.060791 -0.04719 0)
(-0.0681028 -0.0618152 0)
(-0.0708237 -0.0780339 0)
(-0.0685116 -0.095442 0)
(-0.0608643 -0.112975 0)
(-0.0479877 -0.128902 0)
(-0.0308066 -0.141295 0)
(-0.0706602 -0.0501792 0)
(-0.0827916 -0.0667971 0)
(-0.0894178 -0.0851014 0)
(-0.0905027 -0.10519 0)
(-0.0855548 -0.126373 0)
(-0.0743284 -0.147209 0)
(-0.0571543 -0.16564 0)
(-0.0353025 -0.17942 0)
(-0.0946676 -0.0692475 0)
(-0.10586 -0.089005 0)
(-0.110747 -0.110745 0)
(-0.109298 -0.134287 0)
(-0.101018 -0.158617 0)
(-0.0857885 -0.181974 0)
(-0.0642362 -0.20211 0)
(-0.0379046 -0.216462 0)
(-0.120355 -0.0911196 0)
(-0.129498 -0.113878 0)
(-0.131629 -0.138739 0)
(-0.126826 -0.165252 0)
(-0.114624 -0.19209 0)
(-0.0950792 -0.217217 0)
(-0.0690877 -0.238177 0)
(-0.0385139 -0.252477 0)
(-0.147057 -0.115909 0)
(-0.153114 -0.141493 0)
(-0.151595 -0.169151 0)
(-0.142691 -0.198115 0)
(-0.126038 -0.226742 0)
(-0.101939 -0.252829 0)
(-0.0715397 -0.27382 0)
(-0.0369716 -0.287502 0)
(-0.174013 -0.143787 0)
(-0.175984 -0.171977 0)
(-0.170007 -0.202047 0)
(-0.156349 -0.232843 0)
(-0.134827 -0.262498 0)
(-0.106008 -0.28869 0)
(-0.0713099 -0.309029 0)
(-0.0329941 -0.321656 0)
(-0.200363 -0.175058 0)
(-0.197295 -0.205543 0)
(-0.18607 -0.237495 0)
(-0.167077 -0.26941 0)
(-0.140384 -0.299257 0)
(-0.106817 -0.324767 0)
(-0.0679866 -0.343834 0)
(-0.0262344 -0.354874 0)
(-0.225035 -0.210155 0)
(-0.216021 -0.242521 0)
(-0.198821 -0.275698 0)
(-0.174017 -0.307886 0)
(-0.141963 -0.337026 0)
(-0.103709 -0.361018 0)
(-0.0610243 -0.37809 0)
(-0.0162019 -0.386979 0)
(-0.246688 -0.249738 0)
(-0.230807 -0.283394 0)
(-0.206955 -0.31693 0)
(-0.175961 -0.348349 0)
(-0.138503 -0.3757 0)
(-0.0958111 -0.3972 0)
(-0.0496748 -0.411503 0)
(-0.0022219 -0.417792 0)
(-0.263178 -0.294634 0)
(-0.239548 -0.328668 0)
(-0.208519 -0.361345 0)
(-0.17123 -0.390646 0)
(-0.128619 -0.414938 0)
(-0.0819459 -0.432902 0)
(-0.0328928 -0.443653 0)
(0.0166687 -0.446811 0)
(-0.271243 -0.345749 0)
(-0.239007 -0.37869 0)
(-0.200581 -0.408671 0)
(-0.157329 -0.434042 0)
(-0.11026 -0.45374 0)
(-0.060567 -0.467036 0)
(-0.0095651 -0.473469 0)
(0.0413262 -0.472995 0)
(-0.265467 -0.403301 0)
(-0.22452 -0.432538 0)
(-0.17957 -0.457042 0)
(-0.13166 -0.476173 0)
(-0.0816442 -0.489581 0)
(-0.0303364 -0.497053 0)
(0.0213635 -0.498514 0)
(0.0725483 -0.49405 0)
(-0.235949 -0.458612 0)
(-0.189861 -0.479531 0)
(-0.141944 -0.495832 0)
(-0.0926605 -0.507357 0)
(-0.0424847 -0.513996 0)
(0.00810036 -0.515685 0)
(0.0586074 -0.512408 0)
(0.10855 -0.504196 0)
)
;

boundaryField
{
    walls
    {
        type            cellMotion;
        value           uniform (0 0 0);
    }
    cylinder
    {
        type            cellMotion;
        value           nonuniform List<vector> 
16
(
(-0.491129 -0.157447 0)
(-0.473331 -0.204828 0)
(-0.450975 -0.250236 0)
(-0.424276 -0.293235 0)
(-0.393491 -0.333409 0)
(-0.358917 -0.370372 0)
(-0.320886 -0.403769 0)
(-0.279764 -0.433277 0)
(-0.235949 -0.458612 0)
(-0.189861 -0.479531 0)
(-0.141944 -0.495832 0)
(-0.0926605 -0.507357 0)
(-0.0424847 -0.513996 0)
(0.00810036 -0.515685 0)
(0.0586074 -0.512408 0)
(0.10855 -0.504196 0)
)
;
    }
    outlet
    {
        type            cellMotion;
        value           nonuniform List<vector> 0();
    }
    inlet
    {
        type            cellMotion;
        value           uniform (0 0 0);
    }
    frontAndBack
    {
        type            empty;
    }
    procBoundary2to0
    {
        type            processor;
        value           nonuniform List<vector> 
16
(
(-0.00278964 -0.0222798 0)
(-0.007005 -0.0661441 0)
(-0.00973715 -0.107994 0)
(-0.0110501 -0.148022 0)
(-0.0109365 -0.186342 0)
(-0.00932865 -0.223124 0)
(-0.00610492 -0.258477 0)
(-0.0010393 -0.292597 0)
(0.00612129 -0.325495 0)
(0.0157306 -0.357095 0)
(0.0282596 -0.387301 0)
(0.0444085 -0.415979 0)
(0.0649661 -0.442527 0)
(0.0907731 -0.465891 0)
(0.122326 -0.483902 0)
(0.157447 -0.491129 0)
)
;
    }
    procBoundary2to3
    {
        type            processor;
        value           nonuniform List<vector> 
16
(
(-0.0205647 0.00595856 0)
(-0.0618263 0.0161639 0)
(-0.102092 0.0244145 0)
(-0.141331 0.0307847 0)
(-0.179458 0.0352764 0)
(-0.216504 0.0378753 0)
(-0.252514 0.0384864 0)
(-0.28754 0.0369434 0)
(-0.321685 0.0329737 0)
(-0.354901 0.0262151 0)
(-0.386997 0.0161946 0)
(-0.417804 0.00221611 0)
(-0.446818 -0.0166605 0)
(-0.472998 -0.0413168 0)
(-0.494051 -0.0725387 0)
(-0.504196 -0.10855 0)
)
;
    }
}


// ************************************************************************* //
