/*--------------------------------*- C++ -*----------------------------------*\
| =========                 |                                                 |
| \\      /  F ield         | OpenFOAM: The Open Source CFD Toolbox           |
|  \\    /   O peration     | Version:  2412                                  |
|   \\  /    A nd           | Website:  www.openfoam.com                      |
|    \\/     M anipulation  |                                                 |
\*---------------------------------------------------------------------------*/
FoamFile
{
    version     2.0;
    format      ascii;
    arch        "LSB;label=32;scalar=64";
    class       surfaceScalarField;
    location    "1";
    object      meshPhi;
}
// * * * * * * * * * * * * * * * * * * * * * * * * * * * * * * * * * * * * * //

dimensions      [0 3 -1 0 0 0 0];

internalField   nonuniform List<scalar> 
480
(
0.000361631
-0.00134785
0.000378217
-0.00105816
0.000400059
-0.00068438
0.000389048
-0.000353426
0.00031811
-0.000151872
0.000236796
-4.3917e-05
0.000140087
2.82841e-05
3.89649e-05
6.03611e-05
0.00104821
-0.00238737
0.00109618
-0.00186428
0.00117835
-0.00121093
0.0011545
-0.000639329
0.000950481
-0.000296695
0.000729102
-0.000106904
0.000446911
1.03134e-05
1.79009e-07
0.000218682
0.00167352
-0.00316843
0.00174403
-0.00245765
0.00192445
-0.00158891
0.00190387
-0.000854233
0.00156644
-0.00044325
0.00124712
-0.000197397
0.000806306
-4.60094e-05
-8.74023e-05
0.000460499
0.00225502
-0.00368162
0.00232329
-0.00283473
0.00252893
-0.00189558
0.00250823
-0.00115603
0.00213486
-0.000674351
0.00177267
-0.000319392
0.00121894
-0.000127436
-0.000194675
0.000797644
0.00281136
-0.00399713
0.00284945
-0.00308616
0.0028734
-0.00218505
0.00282319
-0.0014903
0.00262943
-0.000905598
0.00228819
-0.000435299
0.00168657
-0.000218478
-0.000296511
0.00123852
0.00335759
-0.00410749
0.00337219
-0.00317716
0.00321267
-0.00229107
0.00312321
-0.00156791
0.00310658
-0.000944304
0.00280146
-0.00048867
0.00221008
-0.000288795
-0.0003715
0.00178803
0.00390748
-0.00403657
0.00392398
-0.00310328
0.00378248
-0.00220554
0.00368943
-0.00145525
0.00364611
-0.000869682
0.00334562
-0.000483627
0.00279778
-0.000314678
-0.000405709
0.00244744
0.0044697
-0.00380886
0.00449384
-0.0028901
0.00443704
-0.00202485
0.00436274
-0.0013091
0.0042458
-0.000771928
0.00395622
-0.00043388
0.00347814
-0.000291377
-0.000386186
0.00323809
0.00504261
-0.00343968
0.00506955
-0.00256276
0.00505336
-0.00176564
0.00499963
-0.00111765
0.00488562
-0.000637151
0.00464965
-0.000344997
0.00428464
-0.000226893
-0.000321337
0.00418732
0.00562906
-0.0030114
0.00564982
-0.00219486
0.0056547
-0.00146907
0.00563805
-0.000889141
0.0055778
-0.00047255
0.00544587
-0.000222975
0.00524851
-0.000126531
-0.000224013
0.00532107
0.00622667
-0.00254311
0.00624221
-0.00180736
0.00627475
-0.00115758
0.00631617
-0.000647893
0.0063541
-0.000289307
0.00637943
-8.38358e-05
0.00639783
-1.74551e-05
-0.000128977
0.00667092
0.00683592
-0.00194466
0.00686546
-0.00135234
0.00694696
-0.000823013
0.0070796
-0.000404137
0.00725725
-0.000117101
0.00747156
3.80823e-05
0.00773511
6.86598e-05
-4.96604e-05
0.00822468
0.00743202
-0.00125595
0.00750913
-0.000843034
0.00767196
-0.000464576
0.0079351
-0.000157731
0.00827901
4.55883e-05
0.00869897
0.000148828
0.00920309
0.000156645
6.14708e-05
0.00989408
0.00796184
-0.00057051
0.00811405
-0.000314754
0.00838507
-8.02059e-05
0.00879325
0.000111242
0.00931301
0.000240058
0.00993991
0.000309766
0.0106631
0.000323666
0.00027765
0.011529
0.00834751
6.57649e-05
0.00858019
0.000186895
0.00896547
0.000294163
0.00950183
0.000385205
0.0101734
0.000456098
0.0109674
0.000506989
0.0118564
0.00053674
0.000544492
0.0128215
0.00766757
0.00798259
0.00843657
0.00901069
0.00968652
0.0104401
0.0112393
0.0120405
4.57232e-05
-0.000323082
7.56619e-05
-0.000543863
0.000118119
-0.000858761
0.000164245
-0.00114332
0.00020683
-0.0013653
0.000248102
-0.00149282
0.000287462
-0.00150691
-0.00138323
0.000187483
-0.000833054
0.000279867
-0.00124248
0.00039281
-0.00178561
0.000518362
-0.00224411
0.000640113
-0.00258586
0.000754631
-0.00276678
0.000864075
-0.00274268
-0.00249171
0.000433214
-0.00149813
0.000580229
-0.00205397
0.00074185
-0.00273177
0.000924965
-0.00328662
0.00110753
-0.00368466
0.0012773
-0.00386326
0.00144308
-0.00376812
-0.00337556
0.000783305
-0.00223976
0.000982791
-0.00290079
0.00118071
-0.00365918
0.00139706
-0.00423919
0.00161654
-0.00461151
0.00182319
-0.00472845
0.00202903
-0.00452981
-0.00400285
0.00124259
-0.00302229
0.00149398
-0.00375335
0.0017197
-0.00453087
0.0019463
-0.00508568
0.00217536
-0.00538671
0.00240089
-0.00540468
0.00262721
-0.00509309
-0.00443558
0.0018135
-0.00377267
0.00211072
-0.00453081
0.00236114
-0.00529016
0.00258051
-0.00578655
0.00278851
-0.00596681
0.00300791
-0.00584173
0.00323078
-0.00539897
-0.00463974
0.00249605
-0.00444995
0.00283067
-0.00520109
0.003097
-0.00589371
0.00330123
-0.00629998
0.00346842
-0.00635468
0.00364547
-0.00607633
0.00383315
-0.00549756
-0.00465096
0.00329785
-0.00502473
0.00364125
-0.00570777
0.00391246
-0.00628119
0.00410139
-0.00658163
0.00421817
-0.00652158
0.00431693
-0.00610762
0.0044362
-0.00539925
-0.00448105
0.0042232
-0.00545901
0.00453034
-0.00601713
0.00477598
-0.00640521
0.00494445
-0.00655937
0.00501237
-0.00640496
0.00501866
-0.00590901
0.00505334
-0.0051203
-0.00415895
0.00529658
-0.00572328
0.00550853
-0.00611502
0.00567219
-0.00626999
0.00578666
-0.00623633
0.00580637
-0.00599222
0.00574239
-0.00548197
0.00569741
-0.00469568
-0.00374341
0.00654708
-0.00577695
0.00661034
-0.00599679
0.00662272
-0.00591769
0.0066095
-0.00566958
0.00655643
-0.00530246
0.00644701
-0.0047806
0.00634531
-0.00406334
-0.00321739
0.0079715
-0.00549683
0.00784142
-0.00556275
0.00764418
-0.00528143
0.00744245
-0.00485309
0.00726707
-0.0043638
0.00710329
-0.00382468
0.00696016
-0.00320248
-0.00250947
0.0094907
-0.00469591
0.00913048
-0.00463595
0.00870543
-0.00423902
0.00829512
-0.00373563
0.00796077
-0.00321317
0.0077063
-0.00270379
0.00751076
-0.00218099
-0.0016512
0.0109578
-0.00325485
0.010355
-0.00314352
0.00969832
-0.00276888
0.00909025
-0.00233416
0.00860209
-0.00191154
0.00823924
-0.00152084
0.00799268
-0.0011516
-0.000800826
0.0120428
-0.00124417
0.0111889
-0.00114686
0.0103461
-0.000957392
0.00960984
-0.000751551
0.00902699
-0.000555338
0.00860308
-0.000375857
0.00833961
-0.000207946
-4.92164e-05
0.0110323
0.0100691
0.00922432
0.0085348
0.0080159
0.00767106
0.00749968
)
;

boundaryField
{
    walls
    {
        type            calculated;
        value           uniform 0;
    }
    cylinder
    {
        type            calculated;
        value           nonuniform List<scalar> 
16
(
1.7026e-12
-2.0897e-12
-6.92476e-13
1.26247e-12
-3.55262e-12
2.57483e-12
3.98697e-12
-2.01752e-12
2.0182e-12
-3.98439e-12
-2.57325e-12
3.55304e-12
-1.26102e-12
6.94056e-13
2.09138e-12
-1.70164e-12
)
;
    }
    outlet
    {
        type            calculated;
        value           nonuniform List<scalar> 0();
    }
    inlet
    {
        type            calculated;
        value           uniform 0;
    }
    frontAndBack
    {
        type            empty;
    }
    procBoundary2to0
    {
        type            processor;
        value           nonuniform List<scalar> 
16
(
0.000328293
0.000980469
0.00161738
0.00223908
0.00284552
0.00343534
0.00400988
0.00457676
0.0051458
0.00572688
0.00631415
0.00688845
0.00741976
0.00788828
0.00824397
0.00749836
)
;
    }
    procBoundary2to3
    {
        type            processor;
        value           nonuniform List<scalar> 
16
(
-0.000320815
-0.000944532
-0.00153833
-0.00211513
-0.00268543
-0.00325379
-0.00382275
-0.00440046
-0.00499392
-0.00561016
-0.00623724
-0.00685122
-0.00742207
-0.00792011
-0.00827115
-0.00750491
)
;
    }
}


// ************************************************************************* //
