/*--------------------------------*- C++ -*----------------------------------*\
| =========                 |                                                 |
| \\      /  F ield         | OpenFOAM: The Open Source CFD Toolbox           |
|  \\    /   O peration     | Version:  2412                                  |
|   \\  /    A nd           | Website:  www.openfoam.com                      |
|    \\/     M anipulation  |                                                 |
\*---------------------------------------------------------------------------*/
FoamFile
{
    version     2.0;
    format      ascii;
    arch        "LSB;label=32;scalar=64";
    class       pointVectorField;
    location    "1";
    object      pointDisplacement;
}
// * * * * * * * * * * * * * * * * * * * * * * * * * * * * * * * * * * * * * //

dimensions      [0 1 0 0 0 0 0];

internalField   nonuniform List<vector> 
578
(
(0 0 0)
(0 0 0)
(0 0 0)
(0 0 0)
(0 0 0)
(0 0 0)
(0 0 0)
(0 0 0)
(0 0 0)
(-0.0427498 0.00800721 0)
(-0.0444901 0.00163814 0)
(-0.0435221 -0.00454312 0)
(-0.0399525 -0.00947069 0)
(-0.034348 -0.0123702 0)
(-0.0275026 -0.0129447 0)
(-0.0201467 -0.0113588 0)
(-0.0127635 -0.0080795 0)
(-0.0088837 -0.005894 0)
(-0.0845681 0.01435 0)
(-0.0873622 0.00219843 0)
(-0.0853723 -0.00941241 0)
(-0.0788823 -0.0187148 0)
(-0.0688637 -0.0244554 0)
(-0.0566041 -0.0261324 0)
(-0.0432881 -0.0239469 0)
(-0.029696 -0.0185556 0)
(-0.0223972 -0.0149329 0)
(-0.124919 0.019008 0)
(-0.128122 0.00166875 0)
(-0.125046 -0.0146738 0)
(-0.116177 -0.0278377 0)
(-0.102776 -0.0363104 0)
(-0.0864145 -0.0394709 0)
(-0.0685225 -0.0374981 0)
(-0.0500232 -0.0310796 0)
(-0.0397801 -0.0267636 0)
(-0.163849 0.0220146 0)
(-0.166981 1.74813e-05 0)
(-0.162801 -0.0204907 0)
(-0.152003 -0.0371156 0)
(-0.136047 -0.0482313 0)
(-0.116654 -0.0531607 0)
(-0.0953758 -0.0520428 0)
(-0.0731798 -0.0455306 0)
(-0.0604846 -0.0412538 0)
(-0.201418 0.0233498 0)
(-0.204127 -0.00283985 0)
(-0.198873 -0.0270598 0)
(-0.186532 -0.0468418 0)
(-0.168674 -0.0605345 0)
(-0.147099 -0.0674472 0)
(-0.123419 -0.0676914 0)
(-0.0986015 -0.0618765 0)
(-0.0839187 -0.0583277 0)
(-0.237714 0.0229386 0)
(-0.23974 -0.00704693 0)
(-0.233465 -0.0346167 0)
(-0.219887 -0.0573184 0)
(-0.200643 -0.0735418 0)
(-0.177558 -0.082613 0)
(-0.152263 -0.0846272 0)
(-0.125729 -0.0801744 0)
(-0.109463 -0.0779804 0)
(-0.272837 0.0206297 0)
(-0.27398 -0.0128071 0)
(-0.266686 -0.0434162 0)
(-0.252074 -0.0688399 0)
(-0.231845 -0.0875662 0)
(-0.207798 -0.0989609 0)
(-0.181525 -0.103095 0)
(-0.154 -0.100565 0)
(-0.136468 -0.100287 0)
(-0.30688 0.0161925 0)
(-0.306915 -0.020372 0)
(-0.298556 -0.0537441 0)
(-0.283057 -0.0817347 0)
(-0.262135 -0.102959 0)
(-0.23754 -0.11683 0)
(-0.210789 -0.123401 0)
(-0.182833 -0.123286 0)
(-0.164233 -0.125412 0)
(-0.339839 0.00931689 0)
(-0.338521 -0.0300597 0)
(-0.329057 -0.0659625 0)
(-0.312776 -0.0964085 0)
(-0.291354 -0.120146 0)
(-0.266473 -0.136641 0)
(-0.239585 -0.145945 0)
(-0.21159 -0.148684 0)
(-0.191984 -0.153625 0)
(-0.371612 -0.000412049 0)
(-0.36873 -0.0423046 0)
(-0.358118 -0.0805426 0)
(-0.341093 -0.113361 0)
(-0.319257 -0.139644 0)
(-0.294211 -0.158918 0)
(-0.26735 -0.171233 0)
(-0.239515 -0.177227 0)
(-0.21881 -0.185336 0)
(-0.402052 -0.0135801 0)
(-0.397411 -0.0576991 0)
(-0.385552 -0.0980872 0)
(-0.367744 -0.13321 0)
(-0.345472 -0.1621 0)
(-0.320227 -0.184329 0)
(-0.293342 -0.199928 0)
(-0.265634 -0.209567 0)
(-0.243564 -0.221143 0)
(-0.430808 -0.0309706 0)
(-0.424167 -0.0769631 0)
(-0.410892 -0.119292 0)
(-0.39217 -0.156676 0)
(-0.369334 -0.188271 0)
(-0.34371 -0.21367 0)
(-0.316523 -0.232891 0)
(-0.288578 -0.246589 0)
(-0.264594 -0.261857 0)
(-0.457079 -0.0534469 0)
(-0.448157 -0.100895 0)
(-0.433245 -0.144948 0)
(-0.413356 -0.184566 0)
(-0.389638 -0.218997 0)
(-0.363225 -0.247853 0)
(-0.335183 -0.271119 0)
(-0.306253 -0.289346 0)
(-0.279381 -0.308454 0)
(-0.479225 -0.081765 0)
(-0.46776 -0.130123 0)
(-0.450957 -0.175574 0)
(-0.429557 -0.217311 0)
(-0.40443 -0.2547 0)
(-0.376465 -0.287377 0)
(-0.346523 -0.31524 0)
(-0.315202 -0.338633 0)
(-0.28383 -0.36168 0)
(-0.493329 -0.115281 0)
(-0.479212 -0.163665 0)
(-0.460266 -0.209878 0)
(-0.436879 -0.253348 0)
(-0.409517 -0.293588 0)
(-0.37869 -0.330221 0)
(-0.344918 -0.362984 0)
(-0.308631 -0.391816 0)
(-0.270324 -0.418075 0)
(-0.498864 -0.13332 0)
(-0.483394 -0.181575 0)
(-0.463269 -0.228081 0)
(-0.438682 -0.272391 0)
(-0.409871 -0.314078 0)
(-0.377112 -0.35274 0)
(-0.340722 -0.388005 0)
(-0.30105 -0.419533 0)
(-0.258479 -0.447021 0)
(0 0 0)
(0 0 0)
(0 0 0)
(0 0 0)
(0 0 0)
(0 0 0)
(0 0 0)
(0 0 0)
(0 0 0)
(-0.0427498 0.00800721 0)
(-0.0444901 0.00163814 0)
(-0.0435221 -0.00454312 0)
(-0.0399525 -0.00947069 0)
(-0.034348 -0.0123702 0)
(-0.0275026 -0.0129447 0)
(-0.0201467 -0.0113588 0)
(-0.0127635 -0.0080795 0)
(-0.0088837 -0.005894 0)
(-0.0845681 0.01435 0)
(-0.0873622 0.00219843 0)
(-0.0853723 -0.00941241 0)
(-0.0788823 -0.0187148 0)
(-0.0688637 -0.0244554 0)
(-0.0566041 -0.0261324 0)
(-0.0432881 -0.0239469 0)
(-0.029696 -0.0185556 0)
(-0.0223972 -0.0149329 0)
(-0.124919 0.019008 0)
(-0.128122 0.00166875 0)
(-0.125046 -0.0146738 0)
(-0.116177 -0.0278377 0)
(-0.102776 -0.0363104 0)
(-0.0864145 -0.0394709 0)
(-0.0685225 -0.0374981 0)
(-0.0500232 -0.0310796 0)
(-0.0397801 -0.0267636 0)
(-0.163849 0.0220146 0)
(-0.166981 1.74813e-05 0)
(-0.162801 -0.0204907 0)
(-0.152003 -0.0371156 0)
(-0.136047 -0.0482313 0)
(-0.116654 -0.0531607 0)
(-0.0953758 -0.0520428 0)
(-0.0731798 -0.0455306 0)
(-0.0604846 -0.0412538 0)
(-0.201418 0.0233498 0)
(-0.204127 -0.00283985 0)
(-0.198873 -0.0270598 0)
(-0.186532 -0.0468418 0)
(-0.168674 -0.0605345 0)
(-0.147099 -0.0674472 0)
(-0.123419 -0.0676914 0)
(-0.0986015 -0.0618765 0)
(-0.0839187 -0.0583277 0)
(-0.237714 0.0229386 0)
(-0.23974 -0.00704693 0)
(-0.233465 -0.0346167 0)
(-0.219887 -0.0573184 0)
(-0.200643 -0.0735418 0)
(-0.177558 -0.082613 0)
(-0.152263 -0.0846272 0)
(-0.125729 -0.0801744 0)
(-0.109463 -0.0779804 0)
(-0.272837 0.0206297 0)
(-0.27398 -0.0128071 0)
(-0.266686 -0.0434162 0)
(-0.252074 -0.0688399 0)
(-0.231845 -0.0875662 0)
(-0.207798 -0.0989609 0)
(-0.181525 -0.103095 0)
(-0.154 -0.100565 0)
(-0.136468 -0.100287 0)
(-0.30688 0.0161925 0)
(-0.306915 -0.020372 0)
(-0.298556 -0.0537441 0)
(-0.283057 -0.0817347 0)
(-0.262135 -0.102959 0)
(-0.23754 -0.11683 0)
(-0.210789 -0.123401 0)
(-0.182833 -0.123286 0)
(-0.164233 -0.125412 0)
(-0.339839 0.00931689 0)
(-0.338521 -0.0300597 0)
(-0.329057 -0.0659625 0)
(-0.312776 -0.0964085 0)
(-0.291354 -0.120146 0)
(-0.266473 -0.136641 0)
(-0.239585 -0.145945 0)
(-0.21159 -0.148684 0)
(-0.191984 -0.153625 0)
(-0.371612 -0.000412049 0)
(-0.36873 -0.0423046 0)
(-0.358118 -0.0805426 0)
(-0.341093 -0.113361 0)
(-0.319257 -0.139644 0)
(-0.294211 -0.158918 0)
(-0.26735 -0.171233 0)
(-0.239515 -0.177227 0)
(-0.21881 -0.185336 0)
(-0.402052 -0.0135801 0)
(-0.397411 -0.0576991 0)
(-0.385552 -0.0980872 0)
(-0.367744 -0.13321 0)
(-0.345472 -0.1621 0)
(-0.320227 -0.184329 0)
(-0.293342 -0.199928 0)
(-0.265634 -0.209567 0)
(-0.243564 -0.221143 0)
(-0.430808 -0.0309706 0)
(-0.424167 -0.0769631 0)
(-0.410892 -0.119292 0)
(-0.39217 -0.156676 0)
(-0.369334 -0.188271 0)
(-0.34371 -0.21367 0)
(-0.316523 -0.232891 0)
(-0.288578 -0.246589 0)
(-0.264594 -0.261857 0)
(-0.457079 -0.0534469 0)
(-0.448157 -0.100895 0)
(-0.433245 -0.144948 0)
(-0.413356 -0.184566 0)
(-0.389638 -0.218997 0)
(-0.363225 -0.247853 0)
(-0.335183 -0.271119 0)
(-0.306253 -0.289346 0)
(-0.279381 -0.308454 0)
(-0.479225 -0.081765 0)
(-0.46776 -0.130123 0)
(-0.450957 -0.175574 0)
(-0.429557 -0.217311 0)
(-0.40443 -0.2547 0)
(-0.376465 -0.287377 0)
(-0.346523 -0.31524 0)
(-0.315202 -0.338633 0)
(-0.28383 -0.36168 0)
(-0.493329 -0.115281 0)
(-0.479212 -0.163665 0)
(-0.460266 -0.209878 0)
(-0.436879 -0.253348 0)
(-0.409517 -0.293588 0)
(-0.37869 -0.330221 0)
(-0.344918 -0.362984 0)
(-0.308631 -0.391816 0)
(-0.270324 -0.418075 0)
(-0.498864 -0.13332 0)
(-0.483394 -0.181575 0)
(-0.463269 -0.228081 0)
(-0.438682 -0.272391 0)
(-0.409871 -0.314078 0)
(-0.377112 -0.35274 0)
(-0.340722 -0.388005 0)
(-0.30105 -0.419533 0)
(-0.258479 -0.447021 0)
(0 0 0)
(0 0 0)
(0 0 0)
(0 0 0)
(0 0 0)
(0 0 0)
(0 0 0)
(0 0 0)
(-0.0115678 -0.00799404 0)
(-0.0159173 -0.0122351 0)
(-0.0188375 -0.0169154 0)
(-0.0201991 -0.0221516 0)
(-0.0198363 -0.0278421 0)
(-0.0176199 -0.033619 0)
(-0.0135702 -0.038838 0)
(-0.00801287 -0.0427359 0)
(-0.0268348 -0.0190521 0)
(-0.0342088 -0.027346 0)
(-0.0387967 -0.0365107 0)
(-0.0404016 -0.046667 0)
(-0.0387445 -0.0575116 0)
(-0.0336553 -0.0682686 0)
(-0.0252884 -0.0777326 0)
(-0.0143618 -0.0845436 0)
(-0.0450818 -0.0329085 0)
(-0.0541422 -0.0450206 0)
(-0.0592089 -0.0584027 0)
(-0.0600448 -0.0730717 0)
(-0.0562995 -0.0884471 0)
(-0.0478366 -0.103336 0)
(-0.0350367 -0.116093 0)
(-0.0190251 -0.124887 0)
(-0.0658214 -0.0495022 0)
(-0.0753022 -0.0652187 0)
(-0.0797411 -0.0825293 0)
(-0.0788805 -0.101259 0)
(-0.0723483 -0.120508 0)
(-0.0601146 -0.138702 0)
(-0.0428362 -0.153848 0)
(-0.0220361 -0.163813 0)
(-0.0885231 -0.068796 0)
(-0.0972368 -0.0879078 0)
(-0.100025 -0.108829 0)
(-0.096628 -0.131121 0)
(-0.0867056 -0.153558 0)
(-0.070404 -0.174259 0)
(-0.0486668 -0.190945 0)
(-0.0233738 -0.20138 0)
(-0.11263 -0.0908014 0)
(-0.119471 -0.113091 0)
(-0.119662 -0.137258 0)
(-0.112977 -0.162572 0)
(-0.0991586 -0.187495 0)
(-0.0785705 -0.209901 0)
(-0.0524465 -0.227346 0)
(-0.0229631 -0.237676 0)
(-0.137546 -0.115589 0)
(-0.1415 -0.140818 0)
(-0.138224 -0.167822 0)
(-0.12758 -0.195566 0)
(-0.109448 -0.222247 0)
(-0.0844284 -0.245547 0)
(-0.054033 -0.263034 0)
(-0.0206526 -0.272802 0)
(-0.162586 -0.143282 0)
(-0.162718 -0.171173 0)
(-0.1552 -0.200553 0)
(-0.140009 -0.230073 0)
(-0.117226 -0.257723 0)
(-0.0877098 -0.281131 0)
(-0.0532027 -0.298042 0)
(-0.0162116 -0.306849 0)
(-0.18696 -0.174083 0)
(-0.182383 -0.204277 0)
(-0.169914 -0.23547 0)
(-0.149688 -0.266033 0)
(-0.122026 -0.293841 0)
(-0.088034 -0.316621 0)
(-0.0496241 -0.332388 0)
(-0.00933083 -0.339814 0)
(-0.209726 -0.208314 0)
(-0.199594 -0.240332 0)
(-0.181531 -0.272651 0)
(-0.155883 -0.303433 0)
(-0.123227 -0.33056 0)
(-0.08488 -0.35197 0)
(-0.0428486 -0.365982 0)
(0.000405051 -0.371593 0)
(-0.229685 -0.246451 0)
(-0.213189 -0.279661 0)
(-0.188966 -0.312253 0)
(-0.157624 -0.342286 0)
(-0.119995 -0.367783 0)
(-0.077542 -0.386996 0)
(-0.0322617 -0.398626 0)
(0.0135804 -0.40204 0)
(-0.245099 -0.289115 0)
(-0.221488 -0.322621 0)
(-0.190682 -0.354366 0)
(-0.153578 -0.382461 0)
(-0.111206 -0.405236 0)
(-0.0650585 -0.421357 0)
(-0.017005 -0.429972 0)
(0.030978 -0.430801 0)
(-0.25328 -0.336954 0)
(-0.221929 -0.369396 0)
(-0.184411 -0.398738 0)
(-0.141839 -0.423402 0)
(-0.0953162 -0.442206 0)
(-0.0462071 -0.454305 0)
(0.00391737 -0.45926 0)
(0.0534599 -0.457075 0)
(-0.250068 -0.390121 0)
(-0.210897 -0.419317 0)
(-0.167243 -0.444062 0)
(-0.12017 -0.463452 0)
(-0.0706445 -0.476905 0)
(-0.0197222 -0.484054 0)
(0.0314639 -0.48478 0)
(0.0817782 -0.479223 0)
(-0.228833 -0.443673 0)
(-0.183835 -0.466388 0)
(-0.136319 -0.484217 0)
(-0.0869809 -0.49686 0)
(-0.0364732 -0.504134 0)
(0.0145353 -0.505949 0)
(0.0653517 -0.502311 0)
(0.115286 -0.493329 0)
(-0.213418 -0.470204 0)
(-0.166303 -0.488858 0)
(-0.117585 -0.502805 0)
(-0.0677357 -0.511909 0)
(-0.0172336 -0.516083 0)
(0.0334344 -0.515287 0)
(0.0837804 -0.509529 0)
(0.13332 -0.498864 0)
(0 0 0)
(0 0 0)
(0 0 0)
(0 0 0)
(0 0 0)
(0 0 0)
(0 0 0)
(0 0 0)
(-0.0115678 -0.00799404 0)
(-0.0159173 -0.0122351 0)
(-0.0188375 -0.0169154 0)
(-0.0201991 -0.0221516 0)
(-0.0198363 -0.0278421 0)
(-0.0176199 -0.033619 0)
(-0.0135702 -0.038838 0)
(-0.00801287 -0.0427359 0)
(-0.0268348 -0.0190521 0)
(-0.0342088 -0.027346 0)
(-0.0387967 -0.0365107 0)
(-0.0404016 -0.046667 0)
(-0.0387445 -0.0575116 0)
(-0.0336553 -0.0682686 0)
(-0.0252884 -0.0777326 0)
(-0.0143618 -0.0845436 0)
(-0.0450818 -0.0329085 0)
(-0.0541422 -0.0450206 0)
(-0.0592089 -0.0584027 0)
(-0.0600448 -0.0730717 0)
(-0.0562995 -0.0884471 0)
(-0.0478366 -0.103336 0)
(-0.0350367 -0.116093 0)
(-0.0190251 -0.124887 0)
(-0.0658214 -0.0495022 0)
(-0.0753022 -0.0652187 0)
(-0.0797411 -0.0825293 0)
(-0.0788805 -0.101259 0)
(-0.0723483 -0.120508 0)
(-0.0601146 -0.138702 0)
(-0.0428362 -0.153848 0)
(-0.0220361 -0.163813 0)
(-0.0885231 -0.068796 0)
(-0.0972368 -0.0879078 0)
(-0.100025 -0.108829 0)
(-0.096628 -0.131121 0)
(-0.0867056 -0.153558 0)
(-0.070404 -0.174259 0)
(-0.0486668 -0.190945 0)
(-0.0233738 -0.20138 0)
(-0.11263 -0.0908014 0)
(-0.119471 -0.113091 0)
(-0.119662 -0.137258 0)
(-0.112977 -0.162572 0)
(-0.0991586 -0.187495 0)
(-0.0785705 -0.209901 0)
(-0.0524465 -0.227346 0)
(-0.0229631 -0.237676 0)
(-0.137546 -0.115589 0)
(-0.1415 -0.140818 0)
(-0.138224 -0.167822 0)
(-0.12758 -0.195566 0)
(-0.109448 -0.222247 0)
(-0.0844284 -0.245547 0)
(-0.054033 -0.263034 0)
(-0.0206526 -0.272802 0)
(-0.162586 -0.143282 0)
(-0.162718 -0.171173 0)
(-0.1552 -0.200553 0)
(-0.140009 -0.230073 0)
(-0.117226 -0.257723 0)
(-0.0877098 -0.281131 0)
(-0.0532027 -0.298042 0)
(-0.0162116 -0.306849 0)
(-0.18696 -0.174083 0)
(-0.182383 -0.204277 0)
(-0.169914 -0.23547 0)
(-0.149688 -0.266033 0)
(-0.122026 -0.293841 0)
(-0.088034 -0.316621 0)
(-0.0496241 -0.332388 0)
(-0.00933083 -0.339814 0)
(-0.209726 -0.208314 0)
(-0.199594 -0.240332 0)
(-0.181531 -0.272651 0)
(-0.155883 -0.303433 0)
(-0.123227 -0.33056 0)
(-0.08488 -0.35197 0)
(-0.0428486 -0.365982 0)
(0.000405051 -0.371593 0)
(-0.229685 -0.246451 0)
(-0.213189 -0.279661 0)
(-0.188966 -0.312253 0)
(-0.157624 -0.342286 0)
(-0.119995 -0.367783 0)
(-0.077542 -0.386996 0)
(-0.0322617 -0.398626 0)
(0.0135804 -0.40204 0)
(-0.245099 -0.289115 0)
(-0.221488 -0.322621 0)
(-0.190682 -0.354366 0)
(-0.153578 -0.382461 0)
(-0.111206 -0.405236 0)
(-0.0650585 -0.421357 0)
(-0.017005 -0.429972 0)
(0.030978 -0.430801 0)
(-0.25328 -0.336954 0)
(-0.221929 -0.369396 0)
(-0.184411 -0.398738 0)
(-0.141839 -0.423402 0)
(-0.0953162 -0.442206 0)
(-0.0462071 -0.454305 0)
(0.00391737 -0.45926 0)
(0.0534599 -0.457075 0)
(-0.250068 -0.390121 0)
(-0.210897 -0.419317 0)
(-0.167243 -0.444062 0)
(-0.12017 -0.463452 0)
(-0.0706445 -0.476905 0)
(-0.0197222 -0.484054 0)
(0.0314639 -0.48478 0)
(0.0817782 -0.479223 0)
(-0.228833 -0.443673 0)
(-0.183835 -0.466388 0)
(-0.136319 -0.484217 0)
(-0.0869809 -0.49686 0)
(-0.0364732 -0.504134 0)
(0.0145353 -0.505949 0)
(0.0653517 -0.502311 0)
(0.115286 -0.493329 0)
(-0.213418 -0.470204 0)
(-0.166303 -0.488858 0)
(-0.117585 -0.502805 0)
(-0.0677357 -0.511909 0)
(-0.0172336 -0.516083 0)
(0.0334344 -0.515287 0)
(0.0837804 -0.509529 0)
(0.13332 -0.498864 0)
)
;

boundaryField
{
    walls
    {
        type            fixedValue;
        value           uniform (0 0 0);
    }
    cylinder
    {
        type            solidBodyMotionDisplacement;
        value           nonuniform List<vector> 
34
(
(-0.498864 -0.13332 0)
(-0.498864 -0.13332 0)
(-0.483394 -0.181575 0)
(-0.483394 -0.181575 0)
(-0.463269 -0.228081 0)
(-0.463269 -0.228081 0)
(-0.438682 -0.272391 0)
(-0.438682 -0.272391 0)
(-0.409871 -0.314078 0)
(-0.409871 -0.314078 0)
(-0.377112 -0.35274 0)
(-0.377112 -0.35274 0)
(-0.340722 -0.388005 0)
(-0.340722 -0.388005 0)
(-0.30105 -0.419533 0)
(-0.30105 -0.419533 0)
(-0.258479 -0.447021 0)
(-0.258479 -0.447021 0)
(-0.213418 -0.470204 0)
(-0.213418 -0.470204 0)
(-0.166303 -0.488858 0)
(-0.166303 -0.488858 0)
(-0.117585 -0.502805 0)
(-0.117585 -0.502805 0)
(-0.0677357 -0.511909 0)
(-0.0677357 -0.511909 0)
(-0.0172336 -0.516083 0)
(-0.0172336 -0.516083 0)
(0.0334344 -0.515287 0)
(0.0334344 -0.515287 0)
(0.0837804 -0.509529 0)
(0.0837804 -0.509529 0)
(0.13332 -0.498864 0)
(0.13332 -0.498864 0)
)
;
        solidBodyMotionFunction oscillatingRotatingMotion;
        oscillatingRotatingMotionCoeffs
        {
            origin          ( 0 0 0 );
            axis            ( 0 0 1 );
            omega           1.5;
            amplitude       ( 0 0 30 );
        }
    }
    outlet
    {
        type            fixedValue;
        value           nonuniform List<vector> 0();
    }
    inlet
    {
        type            fixedValue;
        value           uniform (0 0 0);
    }
    frontAndBack
    {
        type            empty;
    }
    procBoundary2to0
    {
        type            processor;
    }
    procBoundary2to3
    {
        type            processor;
    }
}


// ************************************************************************* //
