/*--------------------------------*- C++ -*----------------------------------*\
| =========                 |                                                 |
| \\      /  F ield         | OpenFOAM: The Open Source CFD Toolbox           |
|  \\    /   O peration     | Version:  2412                                  |
|   \\  /    A nd           | Website:  www.openfoam.com                      |
|    \\/     M anipulation  |                                                 |
\*---------------------------------------------------------------------------*/
FoamFile
{
    version     2.0;
    format      ascii;
    arch        "LSB;label=32;scalar=64";
    class       volScalarField;
    location    "1309";
    object      p;
}
// * * * * * * * * * * * * * * * * * * * * * * * * * * * * * * * * * * * * * //

dimensions      [0 2 -2 0 0 0 0];

internalField   nonuniform List<scalar> 
808
(
-0.03347631492035245
0.04381889875112326
-0.01104542256811658
0.03748839839787999
-0.2963646026503346
-0.05575796825730219
-0.01569014493814998
-0.02415182937884958
-0.1949665420975813
-0.08299247189238682
-0.01078862203261607
-0.2518054626739515
-0.03071925185791728
-0.01411740580841836
-0.1218964649184857
-0.01425859621334804
-0.1381849228051825
-0.01377490135212552
-0.01265615706010448
-0.05488343468004615
-0.007920162100947217
0.1167501323297885
-0.06330611268021515
-0.07076288065097214
0.174564491495294
-0.100505815915958
-0.1508718617361549
-0.02046865233182419
-0.01758670346517223
-0.02554898837443293
-0.02038995782730033
-0.0576452384273743
-0.02271263492845771
-0.01692398199573844
-0.09869631682925574
0.3447786692378091
-0.03995981736332112
-0.01636162590496581
-0.02249953897937267
-0.02647105579264623
-0.08945536549027763
-0.1253551361907577
-0.05275649128089471
-0.02148641724831515
-0.05437533540676842
-0.04237731775536385
-0.01188229133911652
-0.182685769723924
-0.0265750837775729
-0.2022146701805243
-0.01727654237484471
-0.06630532055730044
-0.06168807234761387
-0.01455002381471539
-0.1954403288375481
-0.02781311922007641
-0.01064605420260195
-0.01448653311272863
-0.09922682686626344
-0.03912328218072179
-0.1114653818927566
-0.1245603960753155
-0.01451536815020723
-0.1281508033061887
-0.01764893711617774
-0.05253403636145153
-0.1630183736301388
-0.03537608884836129
-0.01535275154198776
-0.4372602407359559
-0.0261359086711569
-0.2982730458881737
-0.02133600522232131
-0.02121528476850863
-0.06348772355305307
-0.01815924582990719
-0.04186070016171364
-0.3654668125222346
-0.03658409746319063
0.03905284380507616
-0.09211863343739979
-0.01676641312644682
0.05727137671346489
0.04574344075111784
-0.01750283074336284
-0.05152198059711515
-0.537825719699824
-0.2285730510522117
-0.05137742436155964
-0.1134736943529968
-0.05574879796089559
-0.1313436628350341
0.03838004963904021
-0.02645155806234707
-0.06279421342743997
-0.1203785513056327
-0.03821261387935248
-0.05201162915121395
-0.1150504874180627
-0.1388436514611412
-0.05316797038944368
-0.04661681993665917
-0.05363448505649522
-0.04412648731770293
-0.05692229608999933
-0.07552679350835054
-0.03963250599415362
-0.01063921427554876
-0.03965865157811647
-0.1224989696360443
-0.04971679008852711
0.08135358137628733
-0.04181686397637775
-0.007611899720367307
-0.02752160470239775
0.1808509283581947
-0.03810876166642098
-0.2656980952736283
-0.02082837147049648
-0.05276298874129209
-0.04262736557209969
-0.04958545438526143
0.01408393684452203
-0.04782490083198065
-0.03662891842079528
-0.2196293069369162
-0.04022527799657949
-0.004243913617447096
-0.07482716357018993
-0.06978126116808864
-0.1508655880089856
-0.02132040084791613
-0.0744263869961513
-0.04408741053884204
-0.02311406644078885
-0.01496439222061254
-0.005982175864554864
-0.007614737825224033
-0.05182330803338454
-0.04897497006804948
-0.2143875211425304
-0.05562050123530239
-0.008163149421313999
-0.02183370291297143
-0.1490736562155556
-0.002158078361181212
-0.07540710313035634
-0.02116324119470667
-4.87546480719633e-05
-0.01028962459132363
-0.03283286896508593
0.09326961167260107
-0.03797802103167491
0.2515551191483999
-0.2599788929874379
-0.1339131347696937
-0.03809844204724096
-0.0907939129402648
-0.009052424621324173
-0.1147715455912742
-0.167877870971978
-0.2150094374634054
-0.1785310292664415
0.0569546730122456
-0.06390325471160922
-0.02063887975975205
-0.06618786254389621
-0.1716758718612423
-0.02299665347674126
-0.01876578464781221
-0.05112887458451533
-0.02070133423565922
-0.007518575234088742
-0.1063914364587398
-0.02365132721285645
-0.04425837670384639
-0.0710904898829289
-0.1597147727711067
-0.03301673154202339
-0.3843991279748664
-0.01792275528074064
-0.227701289819852
-0.04352127137050449
0.03288232051859112
-0.1060383694173413
-0.016592611587838
-0.043383846786166
-0.1045475760927506
-0.01790383646274232
-0.0952898208551138
-0.2035248158126311
-0.07118226950812405
-0.02422231372396972
-0.04720824014230639
-0.04201898499117887
-0.2012061241178268
-0.02246990985863637
-0.01936812128700517
-0.01126699397016424
-0.05741467414448804
-0.04982697943833506
-0.0227107234699877
-0.0205778253244753
-0.2336174254229691
0.12688118147737
-0.2072512194046985
-0.1898287967645505
-0.01171125734831959
-0.01127534956247303
-0.06648236579548081
-0.01024736867315252
-0.4923562221356079
-0.1270554230303835
-0.0196956066900283
-0.0008056888211491112
-0.02365312200694811
-0.277318066986817
-0.2795833699800257
-0.007559803637316937
-0.01780088489747239
-0.001858229567882085
-0.3506440985108619
-0.02862443390962066
-0.02942996797226508
-0.01269005110242741
-0.01941871987772584
0.04856456653360165
-0.1255910696985543
-0.01422848761979012
-0.02095123997233948
-0.04547777585763452
-0.01842102653484737
-0.01643889088457223
-0.02354080905485822
-0.06801911511536891
-0.01103903546978595
-0.0188999070220365
-0.008978066168587907
-0.001356655639941037
-0.02930960119604086
-0.002106338662011206
-0.001961087887331356
-0.005726599973247919
-0.02549185802926574
-0.008110512854068903
0.00162913186318632
-0.004130432540696589
0.001275255360504213
0.002316899607385136
-0.008834897780869646
-0.1292730291407802
-0.002919247393812905
-0.0001465777132041315
-0.04727298154143262
-0.02138865704464928
-0.02367838827968498
-0.01403836004522431
-0.006211609749007239
-0.02116920215498742
-0.04014275929380662
-0.01516109544817585
-0.01264023402436861
-0.01156330954051781
0.006422946593042318
-0.009620648849446283
-0.01317970044323513
-0.01140658938080104
-0.01005789372903121
-0.01016936251215914
-0.01110703266607673
-0.01355920209921842
-0.2914779210575192
0.05888245566403373
-0.01524333268014469
-0.01546226126281974
-0.0123849450509402
-0.01234648417460115
-0.008239839983905879
-0.09926724821354216
0.01242600658749182
-0.01437308452063179
-0.01380605186391424
-0.01059209385270402
-0.0510080156566268
-0.008110777989511563
-0.01386312797166495
-0.009885936610479392
-0.002365338247943781
-0.01136801633935072
-0.01090360223819332
-0.02424766908568732
-0.01557834015975306
-0.01244099471444627
-0.01344912048309822
-0.009827384159210324
-0.01302723507428099
-0.01087736298777245
-0.05988443021221891
-0.01341697354451866
-0.01227718376585437
-0.009189487344549864
-0.01540679156276618
-0.01404671132444555
-0.01568483459918307
-1.367097192164448
-0.1005864497860374
-0.01181443925690514
0.02429056256997512
-0.1616541556368679
-0.09341860876378721
-0.01215872794445987
-0.01423289242866206
-0.2393817514923516
-0.0283574809744849
-0.01788279615286333
-0.01234998458754666
-0.02055562171566799
-0.01072874249584257
-0.03080064546928691
-0.4082598823672203
-0.01201926762772013
-0.01407863908315178
-0.004422716577785199
-0.01079143644997603
-0.009536736413838974
-0.01386289171440385
-0.008005984860899196
-0.02740316332596088
-0.01175130577841241
-0.1710793570659881
0.02025765216722056
-0.007355447731864104
0.003885110376302959
0.01182477083006651
-0.04905489588720515
0.02755548013994732
-0.01291554121545102
-0.1329984039316374
0.2827785891480111
-0.008221677627760909
-0.01352875463611941
-0.007941300147782087
-0.03329962915484539
-0.1258630805455522
-0.0131846510077839
-0.01194580964096676
-0.01768193648401128
-0.013513801211536
-0.04171187101555758
-0.2201954114954235
-0.009321195906098869
-0.04372686445702721
-0.03833824480352489
-0.1796105659551704
-0.1513457426748089
-0.1552161074235415
-0.236700119273092
-0.002923794317125172
-0.02067944110441447
-0.01557561130973159
-0.01401721923547188
-0.03377581170430954
-0.02451154122187821
-0.013961676735847
-0.01492248598548014
-1.069617139502783
-0.002923672626093752
-0.01339311526709042
-0.01799080104409145
-0.01974282813037339
0.005477729419433155
-0.01427347810629336
-0.02543188883067509
-0.1561633306683258
-0.0136010889559285
-0.02089851411018541
-0.01465847613299998
0.001007876410252963
-0.1779973981266308
-0.01259178227781027
-0.1574757587258497
-0.0154130526780005
0.00613493225293048
-0.01393447018911713
-0.02429765437965534
-0.01644259173584556
0.007333575000886559
-0.2659367516575579
-0.02677446398189321
-0.01696465397277865
-0.01682810865998371
-0.01102128402473354
-0.02929736621766194
-0.01370959450338955
-0.02121105148734425
-0.0204594572665305
0.008372370246243767
-0.09766386841612258
-0.02114204554868118
0.009631489697394875
-0.05744796981329273
0.1795810625215655
-0.1065688298221977
-0.3166506379041689
-0.0293376322333692
-0.02595035046995411
0.151060416888926
0.09456999787730309
-0.003789111232970174
0.05371887966885469
-0.01515264495960849
-0.01325058461114169
0.002727726430891406
0.007873718307321117
-0.06483502802947541
-0.004367749877187164
-0.05590424407855795
-0.02334643050225608
-0.0156774771755158
-0.03650484532285054
-0.03293652433536994
-0.006698523524485135
-0.01452462985329873
-0.03677720447588705
0.03053313922375984
-0.03862170199377428
-0.01385578981186113
-0.1198036896665041
-0.03081307782500294
-0.04006335023793475
-0.6687712070635973
0.01341821735079241
-0.01067601089131374
-0.005641734792098523
0.1871979290858881
-0.101810015555463
-0.03602974785400506
-0.242022592619147
-0.01514950134519114
-0.01603820436397874
0.07747851643184615
-0.180614378366537
-0.230442614035337
-0.1856704725250209
-0.6763503197399287
0.01124586592628101
-0.01790897933260599
-0.0151229731067426
-0.09693164343988596
0.1186526871514597
-0.02198412987416152
-0.2416163553412297
-0.03637144481475133
-0.007015819675720673
0.2790210934148417
-0.01077974785272002
-0.09089278294730284
-0.1531237669750385
-0.004589016375478702
-0.04176373054437268
-0.04633211235332532
-0.1951874279948872
-0.007890212901216061
-0.03983949494761371
-0.0037797500259928
-0.5440284866067152
-0.1939436996853435
-0.1789416788762917
-0.02368576066365369
-0.0091485057351693
-0.06223278820585228
-0.05638539714453609
-0.0160096459169648
-0.0697496072867522
0.004601433888379696
-0.0175439226435955
-0.0950395240762356
-0.2773141482592998
-0.009922981964468272
-0.02474775764306279
-0.02125393914666573
-0.07655046888424592
-0.08892128575007557
-0.08993501264308343
-0.01123047452729493
-0.9077292768580257
0.1620927625690609
-0.08303591879916038
-0.2510816573580663
-0.04127856366124567
-0.009103536780655638
-0.247671611145312
-0.1961581708162145
-0.0308548417700801
-0.1137785535027116
-0.01776110464881936
0.5627702244470922
-0.02527575615381483
-0.2129045384611725
-0.02499467882821024
-0.003733071203367601
-0.01085049027811723
-1.245780571818099
-0.1815362303229789
-0.22697097846827
0.005250305618366444
-0.03952803053252497
-0.2341522284516959
-0.06726184610569351
-0.05229035917845011
-0.1461870098364146
-0.1820044512793043
-0.07015694508076027
-1.214731860636335
-0.1607107938393599
-0.5420444365487027
0.07994067375974651
-0.006259873699367463
-0.02094788281828777
-0.04485830726536785
-0.0381039081431534
-0.02759664852838441
-0.1298403431800308
0.08146554995957385
-0.004384372793198144
-0.009869550206857416
-0.5618280427721341
-0.8488395050287436
-0.1752878932674414
-0.0075299285143611
-0.1224161487766825
0.0005732967415295362
-0.0005744734350835811
-0.00291224560365651
-0.06185327263203783
-0.2332545372856158
-0.01333082964031183
-0.1099641796855731
-0.1564394381409736
-0.01309154397121199
-0.03437016793746517
0.02888737010951632
-0.05896691687645402
-0.07225620553855995
-0.4923344696096161
-0.2289349965028352
-0.0797216494752838
-0.07573127830301708
-0.01926317148995269
-0.1103661549227908
-0.1664962438249957
-0.08245658163436788
0.02729498655617412
-0.08744296084819018
-0.05056804078045814
-0.01494578016751369
-0.1160927205540659
-0.2816992509810961
-0.05968173245689725
-0.01797881743379044
0.00175176542273115
-0.01023708798421879
-0.01050246124875781
-0.237629608756053
-0.01395482390049981
-0.2166814193596155
-0.01081385079923252
-0.07182568758714286
-0.004046412922445327
-0.02326220619869426
-0.3929033714009406
-0.9287762966522991
-0.01122815651352616
-1.040565600039325
-0.6010169919780495
-0.01061781474786959
-0.6597706479113402
-0.1871524773540769
-0.004873682542988977
-0.12320322302269
-0.01712736908246634
-0.1255976940333378
-0.06482767650819947
-0.07784650673944842
-0.005612895890438536
-0.003636926268160571
-1.344931384211487
-0.01138235084771329
-0.1882616534304411
0.001053787345318149
-1.006988499927942
-1.248538001312693
-0.07829772132293832
0.01647924730051813
0.1645914634403534
-0.004921666499568964
-0.02294572459529636
-0.004370373245269571
-0.2383806621131773
0.3654788797782405
-0.04239884117191754
-0.2145256788360801
-0.01529707227223622
-0.6524211927486229
-0.07214110710064679
0.1889427509150451
-0.3041497944330777
-0.05100725565836055
-0.07054380034089017
-0.01579889676053628
-0.02137351851713336
-0.5943165117789245
-0.1541070038857579
-0.09579592787642946
-0.1179811788218684
-0.5505618884560229
-0.04557692930233068
-0.9023548517585334
-0.0007489071963954788
-0.2444243052233209
-1.053812426516241
0.1666404081502479
0.2900517715657366
-0.1702489615524726
-0.1891638081253315
-0.213649596464789
-0.06612216549598775
0.0257100058698463
0.04652669127458484
0.005073750754487301
-0.1523114674951654
0.02608112633711373
-1.366713669714483
-0.08743530687946108
-0.4796240121159659
-0.3347052465822645
-0.2201099319726892
-0.1806738153700649
-0.01698342976376527
-0.01535372200207193
-0.09255415411395818
0.1732429234601645
0.3845496538992251
-0.2100345241854321
-0.1565487725404296
-0.2244631316530764
-0.06381361463297863
-0.1635950220307517
-0.1730442312476079
-0.1279419604833545
-0.1095967454379521
0.4650573020949077
-0.2834963653037496
0.4320793722109426
-0.5890480869303182
0.07302155149842506
-0.1886845206135973
-0.06810730262202323
-0.07773398375623938
-0.8941364522668936
-0.2182164052646313
-0.1928964032116321
-0.3553875118724698
-0.4668223496260199
0.5696909824845791
-0.2128059372226222
0.002680944229256359
-0.06749205807385855
0.3448555167382024
-0.03487997636169923
-0.1189658601460612
-0.1819894562294069
-0.06473065579914794
-0.01632221234249023
-0.1985994206689823
0.195378707164347
-0.01257788482335316
-0.09898691642166882
-0.1763509286580946
-0.3179856679005298
-0.3078578533614121
-0.08354243214649447
-0.00963141864898035
-0.07874185529648334
-0.650776505915322
-0.6738643614806872
-0.3246733573523607
-0.05941094137704155
-0.04946956340508272
-0.02434413019171314
-0.07036200945849416
-0.05490942204819894
-0.3688049032413915
-0.9630665869492899
-0.00860819260986666
-0.08557601779446643
-1.145973897906928
-1.043331080795035
-0.1082403560814787
-0.04173220891062088
-0.06779730121263169
0.3890650935076465
-0.3394081122710344
-0.05146235763936113
-0.6056238829239948
-0.1379009807736851
-0.2482881684902214
-0.2141224917511056
0.4733933946590737
-0.6372241280564589
0.07587096722873118
-0.02836141966445624
-0.5702294802261823
-0.05456814825844466
-0.365543038455876
0.1093047365849859
-0.193962324737619
-0.06168045143175357
-0.1248925619850753
-0.3580688916012997
-0.08499476537985423
0.5149274233258342
0.0870191731444639
0.4698232675257835
-0.124928576254599
-0.2071253329102588
-0.5089514441992282
-0.1343126216118984
0.02418588799032933
-0.05577725420678877
0.1000395738755293
-0.3044232109510266
0.2363953979598361
0.005298727148771897
-0.002622210178035907
-0.5078131495645196
-0.1815182407328158
-0.1001641906059076
0.5810820875319405
0.139632012696025
0.344293588166205
0.2251063509290405
-0.5667984145112394
-0.2092375319370867
-0.2198111823804876
-0.2288927562780369
-0.06246802204748176
-0.6874571210069242
-0.1903273315887707
0.3045604814616775
-0.2035491564679797
-0.011190960836665
-0.1624245457912112
-0.0119514983561963
-0.1708905106993398
-0.4474546078906932
-0.07661512429060148
-0.2064484037732413
-0.07748287701886696
-0.1103737297444596
-0.1315612875598699
-0.07262390026052033
-0.4400502388698325
-0.4105002723391232
-0.02404897744635597
-0.07772795762352117
0.3285626846216025
-0.2526251143501103
-0.1714284202205048
0.5244631339020631
-0.1934142552370394
0.02072521941917331
-0.4558831172344988
0.04895242579701045
-0.0594764118197555
-0.1552829242192285
-0.5926854689259767
0.1592524353348801
-0.5749885352986469
-0.5413745480399965
-0.102354430172267
-0.5130598760978923
-0.03600540166234121
-0.1563865692823857
-0.4145823631535451
-0.01607817974363651
0.2878526829616077
0.4897244120036258
-0.1677325826319616
-0.005593848249408385
-0.0811563229630997
0.5250232100541636
-0.03205249564227493
-0.4464421494034121
-0.03159074851198731
0.4612749962660657
-0.01749626578508013
-0.5511240853411761
-0.2398257539769318
0.1777672420353284
-0.3159581481395404
-0.1826438007073488
0.04858512731649325
0.03117096266967859
0.05649479525292713
-0.3050882409280276
-0.1591189353431062
0.4127728677433483
)
;

boundaryField
{
    FrontBack
    {
        type            empty;
    }
    Top
    {
        type            zeroGradient;
    }
    In
    {
        type            zeroGradient;
    }
    Bottom
    {
        type            zeroGradient;
    }
    Out
    {
        type            fixedValue;
        value           uniform 0;
    }
    circle
    {
        type            zeroGradient;
    }
}


// ************************************************************************* //
