/*--------------------------------*- C++ -*----------------------------------*\
| =========                 |                                                 |
| \\      /  F ield         | OpenFOAM: The Open Source CFD Toolbox           |
|  \\    /   O peration     | Version:  2412                                  |
|   \\  /    A nd           | Website:  www.openfoam.com                      |
|    \\/     M anipulation  |                                                 |
\*---------------------------------------------------------------------------*/
FoamFile
{
    version     2.0;
    format      ascii;
    arch        "LSB;label=32;scalar=64";
    class       surfaceScalarField;
    location    "606.5";
    object      phi;
}
// * * * * * * * * * * * * * * * * * * * * * * * * * * * * * * * * * * * * * //

dimensions      [0 3 -1 0 0 0 0];

oriented        oriented;

internalField   nonuniform List<scalar> 
1171
(
-0.9279223339824646
0.9279223340267406
0.7872642951088235
-1.09874397653467
0.3114796813056052
-0.1949411571675544
-0.7671796995631636
0.9621208566985
0.07207766996438635
-0.1173909613301155
-0.2117764529996723
0.329167414686095
-0.7872643021575322
0.06929730751254441
0.7179669946331543
0.8107856401262259
-0.1773882342146448
-0.6333974058720097
0.874244442273624
-1.043477735619884
0.1692332933060412
-0.2847049182450893
-0.09789745547786895
0.382602373385876
-0.03601304210114488
0.5483565755393484
-0.5123435333597416
-0.5062850336261724
0.8286219862175456
-0.3223369525643918
-0.4020958854146572
1.045691161549356
-0.1714467184341525
0.3959324709188716
0.04861237804794808
-0.4445448481186339
1.0464097035611
-0.0007185418574933829
0.4462962327082801
-0.0503637592917275
1.056961164822349
-0.01055145615530577
0.5780667821122417
-0.7730079461313961
-0.7243524999675512
0.5571477043405461
0.1672047956894487
0.2204503951143146
-0.7267354218956157
0.5501664700452036
-0.9226213201814727
0.3724548508474834
-1.094184415104223
0.686422664867287
0.4077617501296692
-0.5953497023250652
0.5593366544610017
0.0179214337302492
-0.2566051113651613
0.238683678647224
-0.02440254069138699
-0.5232928712781358
0.5476954119685807
0.3998595319906136
-0.4977569946306962
-0.9187509853359638
0.9414711169705161
-0.02272013164346371
1.067749325425619
-0.01078815811190655
0.9352145119574959
-1.116981913853718
0.1817674019495159
1.067390266893655
0.0003590640690500581
-0.6642891784768378
-0.06006332100648874
1.262072631378127
-0.8644360705001828
-0.3976365608808241
0.1486392875621912
-0.1090628333959738
-0.3256799567585758
0.4347427898831195
-0.2857160430714216
0.191263833249896
0.09445220936530178
-0.583387182508009
-0.5153567914070463
1.014108680524718
-0.07889416742251741
0.009925552713188781
0.8254421143958972
-0.8353676671378443
0.5717984890444151
0.6902741406503121
0.4392937388898742
-0.0305879639108531
0.4304474955819871
-0.8077114198930785
-0.1026210180907444
0.9103324380426472
0.5027141429873354
0.2538793919764242
-0.7565935349408961
0.003657137075024493
0.5299508513109642
-0.5336079880598199
-0.4898933008637417
-0.6042911103607328
-0.4229069455942491
-0.6940749680584168
-0.02743835977270155
0.2703893855089105
-0.2429510264636241
-0.9249009653920909
-0.005200329579352915
0.9301012949320524
0.3078514278114978
0.07475093677433273
0.7623192609881722
0.04846638195016987
-0.5330237077657078
-0.06232599727880338
0.04632326305610259
-0.8540346810092964
0.0765817613795077
0.8618584308784397
-0.9384401922620824
-0.3474090586600074
-0.04104461723499282
0.3884536758788354
-0.6824303342512394
-0.2424706335603349
-0.6315636001547326
0.7081453641883697
0.6093743259454274
0.2192476664536182
-0.5429315034854377
0.9462197253935296
-0.7793895951356629
-0.1668301302779753
0.02134892893739318
-0.01273906515169198
-0.008609863205126096
-0.4029609701810244
-0.09479602486448975
-0.2419525965905161
0.8513269283105775
0.04696774103157061
0.334297300583436
-0.3812650419836228
-0.4607077089765135
0.9634218546171539
0.6801084256979337
-0.7827294399385744
0.3183066564466303
-0.01584880171870538
-0.3024578544243963
0.9306656255745874
-0.9306656255871874
-0.7830446515832437
0.1111645343180155
-0.3229409917769637
-0.7500463183515502
0.7599718704068691
-0.09082658244260988
-0.1426900305125637
0.2335166124750368
0.8649430578191855
-0.0395009449425616
1.054458719020827
-0.8005793220262725
0.1861237085816897
-0.3157125099201334
0.129588801431323
0.8591472284090765
-0.09682796721470872
-0.6117090363409483
-0.03942492464816066
0.6511339609672531
0.1238097778617862
-0.2309702031679375
0.1071604263093082
0.8056198532856343
-0.9830080857731245
-0.4350439890887182
0.3294542918351717
0.1055896976181191
0.5320505314719712
-0.5564530686811717
1.022132563310079
-0.4562770711484987
-0.5658554921593205
0.5992256201757959
-0.7193013908921102
0.06662784282647884
0.6526735477372896
0.1025536968606537
0.5704621609001406
0.05466704530739465
-0.6251292060980097
0.1944984740032052
-0.08333394197253942
-0.4929592945881893
0.1455502370610212
0.05037293882529385
-0.8868014164573783
0.8364284776848068
-0.4746804961721766
-0.7134073526160813
0.04911817220359618
0.4365005203296379
-0.006053028827276227
0.2999694729200587
-0.8552733058346925
0.5553038330997322
0.4157234649845637
0.5842765350606591
0.5606049196023789
-0.5142816501163145
-0.3652743933696103
0.03594194786416943
0.3293324431252683
0.6813414951671545
0.2493241303393621
-0.566899458228791
0.5705565937848142
0.1108205659027693
0.8749171652082801
0.0102895783447089
-0.6219986151522056
-0.7492994101115047
0.7996723506418251
0.5310372335223065
0.07156958790627264
0.3008923708814732
-0.372461958647384
-0.1676120115761729
0.4425390203386884
0.08741182425883831
0.8752072515040265
-0.7979548438290553
-0.07725240760159049
0.6355270782569664
0.310692647583015
-0.4303993294449498
0.5754733922355314
-0.5039038027529705
0.4171225500840293
0.1330439289306486
-0.04690325596318707
-0.5888632955614655
-0.1386407860646537
0.7275040816144884
-0.149672606322922
-0.7809930219936684
-0.6110588195359925
0.3605563556376786
0.2505024629570493
0.6222774216600914
-0.6119878421696402
0.2383408347726398
1.011603307883372
0.04285541097841241
-0.749299408130126
0.2201898261729667
-0.1988409039547692
0.6801084239396382
0.8021499036864149
-0.8021499037306548
0.837683240318423
-0.8332933930445832
-0.004389847205459292
-0.4453674677516513
0.8610909337168678
-0.1476361878470494
-0.3453231091710783
0.7347348041809107
-0.6684973928044303
-0.0662374114368694
-0.7323305646313089
0.1434672687724171
0.1388367703501158
-0.6718604782788465
0.7827294236533817
-0.9503414352793919
-0.3648057541747331
0.2876208628089448
0.07718489070025197
0.1458587991786886
-1.009595384159776
0.8637365850017032
0.4806426559809128
-0.04134891715684351
-0.3081555119221276
0.5863865315255621
-0.2782310195022656
-0.7383322824794746
0.8841910794014529
-0.1571121725013456
0.7346881346037601
-0.8373032465329997
0.1026151120160096
0.9781937685019589
-0.5416027422065067
-0.4365910263373403
0.7552466501956936
-0.06485091251795953
-0.03555676176012647
0.1876953295239185
-0.1521385681971853
-0.7757333471092704
-0.8444167249257583
0.0772370183349371
-0.7500463180563591
0.5141288590533724
-0.5551734788133466
0.09080609028472927
0.7181045131920848
-0.8089106033654204
0.7536892413536016
0.1742331114025496
0.502883418812732
0.4971165811677259
-0.05332402950138507
-0.6057806424583458
0.6591046722258326
0.879272847301941
-0.004065592458652719
-0.7552466501826779
0.7996723505620215
0.1911809779289897
-0.4477860863341667
0.01859968076342463
0.00119510990105255
-0.01979478731591127
0.5894471425390824
-0.4382653408932549
-0.1511818013044793
0.7179669986863891
0.01408743109978087
-0.1097285910757991
0.4378852522433372
0.1515618927168501
-0.01349709417687554
-0.006725912800841871
0.02022300639025888
-0.0338065053382979
-0.001750265477210064
0.2438073289882058
-0.2596561173157316
-0.9592620757790569
0.002007919063199026
-0.1595897252273548
-0.120998425867194
0.09473362532455526
0.7214692633966577
0.7290032259478774
-0.1447266918804394
0.6614256809159901
-0.5706195926715164
-0.211902417890291
0.3980261271857277
0.6954768746815309
0.02249012398705499
0.2416365995185626
-1.074929990055796
-0.9503414373108005
0.3017984053433171
0.7599718694426751
-0.2088306653441704
0.06614063861884219
-0.7234771829548257
0.9094317974070696
-0.1859546144256846
0.4163301904918268
-0.0278765206955041
0.7715775676022053
0.2806986121292297
0.3730730061985305
0.07322321423123068
-0.6586983218990659
0.6586983218811397
0.2147954159531348
0.6955370255970661
-0.05508202400699016
0.3893793266411867
0.3796607696873524
-0.01306260490702766
0.031662275370506
0.4492367619011615
0.03140589170667069
-0.7383322832179982
0.5340967399183859
0.2006380676329303
0.3048413112433541
-0.1171459773970197
-0.695476874481052
0.1797411503216617
0.7296906465778459
-0.01026135063884751
-0.8136366748363533
0.823898025456808
0.6963111621123794
-0.7920453324008702
0.09573417031802693
-0.753689249189324
-0.1506288316348562
0.2116087365623121
-0.06097990570407572
0.07737868310875025
-0.1792088470452828
-0.1130920901859233
0.292300937892108
-0.0060215606650142
-0.007475539500519663
0.7066155981910679
-0.7168769564899033
0.8851459353794453
0.07697491503895794
-0.3168623376889143
-0.5171886069331878
0.8340509444488192
0.1037133523523156
-0.1037133504778163
0.3235628170809231
0.4735660075110821
0.6171784817314329
-1.090744489149182
-0.1941163822728628
-0.5856689009600917
0.77978528324399
0.01349335461511197
0.2200232664709639
0.3769865921805329
-0.2531768014744699
1.013634912649468
-0.5400689016340828
0.6653723133956103
0.9946295180825165
-0.3774510329543561
0.2293504002385569
0.8841910770166249
0.7127443607304911
0.2137449528013069
0.727726168317417
-0.7809930221851527
0.3413016937537756
-0.27635360586852
0.2458093028245513
0.0305443024517554
0.8466436794520065
-0.008002956799851973
-0.8386407224774596
-0.7021929101125712
0.7025519769393804
0.5546325348411459
-0.702192907752341
-0.7127443607325571
0.7025519796483297
-0.03484891862473294
0.9067869690757669
-0.02164103747397284
-0.6813414852680255
0.6123552090358471
0.06898627622977042
0.5387074138308978
0.5368959743387677
-1.075603388165
0.4909793964835104
0.5226555172560077
0.5430148290753987
0.4591125837478952
-1.002127412772926
0.4967350434411578
0.4978944758186539
0.6123552020643965
-0.5255368094172946
-0.4651783178555079
-0.5566435322541868
-0.5184492050543154
-0.1191987380535786
-0.01223716521710613
0.01223716441689995
0.5130154488539321
0.5231265183027203
-1.041575723253335
0.5746920018887136
-0.2737996316721452
-0.885411643213831
0.3438089004140638
-0.6330880026965292
0.3906173685286481
0.002588610501523066
-0.828880543911978
0.8262919333839526
0.4208477081650547
-0.01788042466205951
0.8645241022854213
-0.9484259329967649
-0.8337853260211832
0.05408698515513131
0.7796983408068808
0.5657010442162194
-0.4393212953244472
-0.126379748914862
0.6500860753026326
-0.7289802429280807
0.8865585737105631
-0.8320192230632681
-0.05453935081894521
-0.009921944479193014
-0.7880328963448073
-0.1097545017249891
0.7131485686947439
-0.6033940669617268
-0.9362454883269802
0.9263235441719759
-0.726190999247549
0.6917344992820219
0.03445649995532975
-0.8110312377843331
0.03911333724426477
0.7719179004634088
0.06174822259151723
0.04196512710380434
0.4330134019479079
0.06186734428585767
-0.8516682391779327
0.7898008949961629
-0.6433471162973443
0.5900230911281452
0.8896292485361976
0.07040854041033506
-0.96003778887839
0.05584392014795186
-0.04765943603299049
0.3769918877458162
-0.3814762064323758
0.06576370041877758
0.8422352703393401
-0.8396466559105401
-0.7340563288126933
-0.8128679149715471
0.02483501903660667
-0.1632416206750963
-0.8529588556758858
0.02093963947979945
0.62357588928457
0.03784978991633575
0.03393150393012585
0.5317695493619068
-0.806960820018511
0.8460741534190799
0.5658554900741325
-0.846760962954658
-0.8658369493213178
0.04095001648249858
-0.03491518486733115
0.8379192855150615
-0.8030041006913123
-0.02666691297892904
-0.7689715168322897
0.5443452973713877
0.1519658621423333
-0.0309584629228814
0.8954825659740937
0.9804105280085863
0.8624563824456655
-0.8415167392779443
0.1476144603193281
-0.1476144588331517
-0.1185678167336753
-0.4814952420609046
0.04217395216389286
0.2704444705739363
0.031353934486749
0.3871604452415488
0.8688156508101579
0.005331103175824043
-0.01135267445838918
0.658603765145048
0.3413962348372605
0.7835820214639784
-0.5833871808577189
-0.7780892012937229
-0.8110070630865854
-0.6798318533788896
0.6798318533765125
-0.1677992732719216
-0.1551417232571976
0.6019722340649939
-0.8122231223246279
0.2102508882385304
-0.4937809621821641
-0.5690068412798067
0.2781705647088815
-0.9722455320623957
-0.9018104499320374
0.8472711082161895
-0.8130793574808046
0.8379143757485507
0.6487373169322393
0.1342501389511939
-0.7829874558699171
-0.7765505633568035
-0.1460104823297372
0.7242245523536552
-0.5782140700117993
0.03299479612054835
-0.01436718140044668
0.01813798718394573
-0.003770806826272875
-0.3550485211096022
-0.1264467241849457
0.8801427968455783
0.7458665934857143
-0.2464149640789452
-0.4994516290997477
0.6194868422186728
0.6853527904795849
-0.4705573727656567
-0.0004909040476827019
-0.2852251359051451
0.02415514054961826
0.7475570248817137
-0.7717121655414831
-0.3235082165096397
-0.0727905208352105
0.07586351999056994
-0.9607520827966173
0.1221113574897574
-0.6779729862856897
0.05177624582888975
0.6408661765851219
-0.6926424224384249
-0.7565088060618087
0.0785358197833774
0.5879540112925687
-0.660744532197067
0.1570973875842546
-0.3363062319896064
-0.7704979454900445
-0.006052617839898664
0.3711976306678393
0.6012302182139384
-0.02575682884704407
0.0220096546933663
-0.0220096540004181
-0.01896308895114153
-0.0496339516666346
-0.226719665951244
0.0252074008449142
-0.01987626877553816
-0.732648152947554
0.2792741606100438
0.6804909523370591
-0.6893325655145496
0.008841613005656104
-0.5957925139464634
0.647568763353943
0.6531278290590646
-0.06517381819916258
-0.6314122397584259
-0.1250965637565845
-1.050424496023443
0.01105933068592427
0.1365551270368854
-0.7084930107835007
-0.7411667373919264
-0.7631602739222485
0.3655237117331745
-0.4119686776852127
0.4646690653569358
-0.05270038771467295
-0.6691895299551273
-0.03930348091386623
0.5018218153354658
0.7306814280906998
-0.2339003548136094
0.1129019278987985
0.9668046979911736
0.4462214234159264
0.1341589108852875
-0.5803803342478187
-0.6778138308983359
0.008624298862533615
-0.04467744941310457
0.03031028405051837
0.6364669615947688
-0.7751077467159214
-0.001911185733197324
0.001911186139825659
-0.6011224608822585
0.64824362644642
-0.04712116554209501
-0.6438823251194613
-0.1130742035278349
-0.6715283980480763
0.05540740940358389
0.6036972686905314
-0.1371354683825711
-0.8175388809499725
-0.5612610683011021
0.5654304750438994
-0.004169407167555322
0.6321965294551569
-0.6233549133393579
0.3223953581231537
0.2141700191700772
-0.5365653772886207
-0.1046997764448052
-0.6018152726860182
-0.09082714883980023
-0.1549010400552209
-0.5058536520388749
0.4040947338635145
-0.498890757146786
0.1268641271325124
0.6782769536370773
-0.8051410807898542
0.5992256201800453
-0.368099221777228
-0.04386944875508741
0.08183480839016072
-0.5876884586703423
0.5517907667456814
-0.04056445939853237
-0.5112263071957862
-0.3125244487533326
0.3050547246517545
0.007469723151341248
0.4545689716674912
0.1201230319215311
0.05131255549469085
-0.3160405956138881
0.1569542547835143
0.1590863406480026
0.229492805594961
-0.009302971791796087
-0.2939820468561466
-0.3113276085382377
0.3592179320144999
-0.04789032571963543
0.7874836726326153
-0.6265139173871551
-0.0173684075568117
0.4992733318510026
0.2806977988314269
-0.5271127619398062
0.577506433517823
-0.5775064335185119
-0.2897399433547876
-0.5864468018767971
-0.2955744136780401
-0.5864468016668113
-0.594514080974631
-0.8385128447714834
0.1700154559762304
-0.5843399715449618
0.821122614472929
-0.003382708753173436
0.1186140106873554
0.4826162062760304
0.09672124292846834
0.1856440253513005
-0.03640159726388516
-0.1492424290124635
-0.01890948759972092
0.5939498324367112
-0.9462136396633524
0.4290250368984866
-0.003098961975453633
0.003159695072806914
-6.073332004653288e-05
-0.6433878881769164
-0.1317064986159933
-0.4676155911258335
0.6017745002201279
-0.5037132947707635
-0.3260270101088542
-0.2616614615283234
-0.2711039162221298
-0.1119019019264595
0.1119019014127598
0.1524934707459459
0.05911526185772655
0.196703352514721
0.4553660990501307
-0.5731829830696449
0.1055673962428777
0.242710344738481
0.4663198675238011
0.5336801318695384
0.6413356517880996
0.08689819978931672
-0.005577272377411091
-0.08132092844342687
-0.2769014790582114
-0.5406374018611048
-0.5512617630284106
0.1142759026447374
-0.1262184106818188
0.0119425076233258
-0.1057133039651141
-0.3858875663447232
-0.04554314192285781
0.6492403946201144
-0.4986725012434173
-0.1447153869613243
-0.3387660801108284
0.2917787039254512
0.1241100194470132
-0.6099230753274256
-0.2042008602007386
-0.2620111130067003
0.002354976634224387
-0.4222457744220845
0.3231186021710429
0.09912717199449718
-0.0945388855224652
0.291643132763153
-0.8959342407923864
-0.4579244123891978
0.6303309098757848
-0.773010577407774
0.6683108009233077
0.3417198922137184
-0.1250595163677919
0.2249707035235531
-0.09991118645684011
0.02421385428451049
-0.5862898033086035
0.02920929189594565
0.5570805116275136
-0.9006968780846603
0.5471379198270411
-0.6657057365831136
-0.09894252721560914
0.1095835548249984
-0.1095835524496172
-0.3165314964697868
0.3629997647530726
0.01399212641872142
0.03086809415810884
0.05603012384362125
0.5052804038625781
0.6617194458120459
-0.7389718511536784
0.03206321034938739
0.02333613428404148
-0.001326468490450164
-0.007191487699543997
0.0071914870240085
-0.4168243338698038
0.5369473684091172
0.01535088304536402
-0.01535088314990339
-0.7922582680009781
-0.06088418030756397
0.1226324099080847
-0.4564910491444532
0.5620584482579979
0.4516327584136888
-0.4987539264883531
0.1499635549547196
-0.149963553806608
0.03322409472263353
-0.001561825352130471
-0.04198785902123055
-0.9763449361498245
0.539753908350148
-0.4695247146347659
0.04196512965565144
0.5145512373795429
0.03105483725285119
-0.5456060744655563
-0.6160732064660568
0.1174007048798471
-0.3295128654726743
0.01343536913014346
0.3160774970875929
-0.1548484505463741
-0.07905189096036175
-0.5408438428317244
-0.04544596484301215
0.1365551254124866
-0.04036935672811053
0.03845817654546976
0.08098966522469253
-0.08098966792165305
-0.5358224133640871
0.4879320975235197
-0.4145237130455469
0.1613362818577135
0.6222457395665555
-0.09776412613174836
-0.003871670687681992
0.003871670435679154
0.532947723732252
-0.07815352909722009
0.005870205008596453
0.02697157065859254
0.03477363110983185
0.6848005786994721
-0.7629541077025168
-0.6545447646256528
0.6371763552766277
-0.1065249702142191
0.3130917754341729
0.7461180591643854
-0.01896309055327859
-0.267078721574073
0.149932735477232
-0.7446504115700661
0.4843038317581054
-0.4249030763797403
-0.1015219740056202
0.003501452790250506
-0.01433219495341154
0.01963010803860708
0.4110666588495074
-0.1216065002892444
-0.3896198056037747
0.6288098560574585
0.0194286791844356
0.01069355287481016
-0.0106935527988276
-0.3541071096341997
-0.0804563165568017
-0.5605141885339823
0.5571314799233498
-0.2381516079102011
0.4647800244485875
-0.1511625477252759
0.7292293266023352
0.6724856552827491
-0.04036935635655332
-0.6161551203628504
0.562757064000461
0.289096883296218
-0.2863347123281514
-0.002762171698936756
0.5426374673890704
0.09338505397292435
-0.03901466301038844
0.1965615252459011
-0.1575468626624218
0.1200043297305863
-0.1200043321382425
-0.8587467859509368
0.002349097853411052
-0.1133694148850916
0.140340986616727
-0.1318855324225775
0.1318855316570184
0.02333612903616662
-0.022834749990657
0.6704133572322017
0.05927728893329543
-0.3229868759453394
-0.06290069068130374
-0.4712224134297346
-0.04966919720738638
-0.1515842011627891
0.1515842000019267
-0.04809683617391817
0.1433581544914621
-0.1433581535275665
0.1364746059588517
-0.1364746077257666
-0.3157392910976526
-0.1146600383965637
0.2264436611038275
0.1030106311310818
0.03484876703615208
-0.8211112231877641
-0.1980196425087278
0.1702244655790222
0.02095651908906685
-0.2651483964752227
0.1258585931612617
-0.1258585923183434
-0.4141048440657775
-0.08478591542869736
0.2363413779556313
0.002342305018215501
0.04062030796656452
-0.5433438310215583
0.5781927496557839
-0.02962827049236736
-0.01846856681929704
-0.02830344640413716
0.0267416320746652
0.006605415704057455
-0.1844180074448836
0.1778125917274407
-0.1084548659113123
-0.227851366387841
-0.1447051122337426
0.1447051112236286
0.07285904643114118
-0.07285904690053516
-0.01935047317244043
-0.108637777546807
0.1279882513426304
0.2414149318580761
-0.1829356472776753
-0.02829241197291073
0.02696595043460789
-0.1379662525039113
0.6258983491928803
-0.03904284718847938
0.4240921904406639
-0.04302636021443218
0.06324937924869997
-0.1533145301406249
0.1533145286814823
-0.6364964509421005
0.3087286488791933
-0.07937824811593651
-0.2345321195093268
0.00356192026219371
-0.1214015789556375
0.1620218860979021
0.1954849382355217
0.09681600447906739
0.09642613944491743
-0.06165250825910929
0.07269065443735956
0.0415852480302329
0.06392899078118111
0.1062954710292754
-0.09626493803943703
0.2091668454444752
0.01260473275967533
-0.1161412135260454
-0.1005688824937977
0.09743057908494
0.003138304546427806
0.01264258055971479
-0.02359767588431995
0.03777055027149825
-0.03777055034009843
0.07515994712116922
-0.0548977987623744
0.0548977984918773
-0.2245219519494293
-0.05289183409052266
0.01147442826294146
-0.1030692058632476
0.01647027927692606
0.1084255607918074
-0.1084255602404917
0.2946121115512871
-0.2714465243148389
0.1629916634367535
-0.05091975046596855
-0.2205267737074174
-0.01742870083705486
0.01742870114937173
0.3674285927887006
0.2852449634541118
-0.5276417080232784
-0.09398802047302561
-0.03223039174617987
0.5287648810369676
0.2131115008276344
-0.1702627178746735
-0.3803245931424079
0.07647220289456821
-0.1476790123589365
0.1872170282991746
-0.03953801622302356
-0.06684030327079478
0.06684030363205373
0.8225902620586097
-0.5606329304350403
-0.005420900894183451
0.01806348088205352
-0.01998363607379317
-0.2868482181996593
-0.01749956123137321
-0.01281957681857166
-0.1318790024531846
-0.5720793469281964
0.5560083273458553
-0.569424753096251
-0.006879092479430475
0.1030205726457525
-0.001730322893921516
0.01683991866180384
-0.167662648999395
-0.3364713360883527
0.2334021303450468
-0.0544389650060535
0.03508849330686992
0.1317731190787779
0.1732816055896766
0.3374912475832338
0.27651041046276
-0.2782407328550476
-0.06211070373251546
-0.1550751008193529
-0.221096744800724
0.07478081399872497
-0.01085182467749897
0.2139720958818394
-0.197132176794549
-0.0862928079787187
0.1589834600253661
-0.3552547327309926
0.2084666114081518
-0.1919963320889771
0.08958475450727034
-0.4792045632506186
0.1743974511132492
0.1700693592434707
-0.2563621603550519
0.07282846960318649
-0.1944478487804962
0.1769482871702702
0.01743303142385359
0.1415504300067028
-0.03954692874752214
0.06602902869953686
0.4669186946108658
0.02034184943564837
-0.07926218207943111
0.05470799082811167
0.126008796376498
-0.2606347598574806
-0.2308816453365414
0.5597276174745476
0.1576241362126576
0.0787172407984762
0.07533122763304485
-0.03091925600357249
-0.01143275164689035
0.008670575501202829
-0.03277958426382069
0.1710802945155564
-0.1779593865805447
-0.05963207160101008
0.02154504780582575
-0.1468933303890524
-0.05289741255289843
0.1495347873271648
0.277072809472015
-0.03860470090419836
0.0153088803848207
-0.2557278767560436
-0.1319437283478885
0.2358330605825305
0.1788693718852072
0.1298592790763634
0.02197576900738746
0.08894540813699967
0.05226154512153412
0.4530188587174408
0.01574302836595218
0.09727581993332848
0.04363140650123386
0.07177731949749885
-0.1154087271020098
-0.2423967468685662
-0.2008451355075642
-0.01968163588157625
-0.2021317565170981
0.275409517105735
)
;

boundaryField
{
    FrontBack
    {
        type            empty;
    }
    Top
    {
        type            calculated;
        value           uniform 0;
    }
    In
    {
        type            calculated;
        value           uniform -1;
    }
    Bottom
    {
        type            calculated;
        value           uniform 0;
    }
    Out
    {
        type            calculated;
        value           nonuniform List<scalar> 10(1.033994225359563 1.064244223669268 1.021821850113971 1.019390559649508 0.9960085593087439 1.016343680788431 1.036141966866701 1.062787803470194 0.8672463725458945 0.8820212155362017);
    }
    circle
    {
        type            calculated;
        value           uniform 0;
    }
}


// ************************************************************************* //
