/*--------------------------------*- C++ -*----------------------------------*\
| =========                 |                                                 |
| \\      /  F ield         | OpenFOAM: The Open Source CFD Toolbox           |
|  \\    /   O peration     | Version:  2412                                  |
|   \\  /    A nd           | Website:  www.openfoam.com                      |
|    \\/     M anipulation  |                                                 |
\*---------------------------------------------------------------------------*/
FoamFile
{
    version     2.0;
    format      ascii;
    arch        "LSB;label=32;scalar=64";
    class       volScalarField;
    location    "239";
    object      yPlus;
}
// * * * * * * * * * * * * * * * * * * * * * * * * * * * * * * * * * * * * * //

dimensions      [0 0 0 0 0 0 0];

internalField   uniform 0;

boundaryField
{
    FrontBack
    {
        type            empty;
    }
    Top
    {
        type            calculated;
        value           nonuniform List<scalar> 
15
(
142.274102210052
133.569295305828
138.0696271692041
144.402398915285
159.7705334940914
131.3685751878442
140.1235992609754
135.3572549748936
153.4346380516681
135.7446665610014
136.0934855421711
136.7725771306631
125.2450763007447
132.9029801033516
123.9471165892484
)
;
    }
    In
    {
        type            calculated;
        value           uniform 0;
    }
    Bottom
    {
        type            calculated;
        value           nonuniform List<scalar> 
15
(
155.5652689893894
158.1130269698569
141.0915048675507
142.0681180404167
141.1832577428062
148.4435272116982
142.704987056613
143.1657956809191
143.4238062058481
134.056704990915
125.7331072537303
141.5534583880931
122.4117369617802
123.4916846075043
124.1400277788907
)
;
    }
    Out
    {
        type            calculated;
        value           uniform 0;
    }
    circle
    {
        type            calculated;
        value           nonuniform List<scalar> 
32
(
56.36895504281065
22.10853636260843
65.32121135490945
23.76683016341901
19.14021102766857
56.1799303694128
56.8157162350682
24.1724752199798
22.33342077745286
65.53993177945182
40.19460525874926
63.05202504627783
50.30498312391526
13.5963128791861
23.69071569513054
19.00837262473442
38.88058810366845
59.59271059033627
61.01085694686506
25.10387539549261
65.72015662106941
63.82016712775425
62.95155737597027
59.92090399516945
64.10010323460702
45.96394903851317
66.36092396531444
32.08728577674083
38.00112030371734
55.74916057751614
21.10995932222902
43.14986600789834
)
;
    }
}


// ************************************************************************* //
