/*--------------------------------*- C++ -*----------------------------------*\
| =========                 |                                                 |
| \\      /  F ield         | OpenFOAM: The Open Source CFD Toolbox           |
|  \\    /   O peration     | Version:  2412                                  |
|   \\  /    A nd           | Website:  www.openfoam.com                      |
|    \\/     M anipulation  |                                                 |
\*---------------------------------------------------------------------------*/
FoamFile
{
    version     2.0;
    format      ascii;
    arch        "LSB;label=32;scalar=64";
    class       volScalarField;
    location    "535.5";
    object      yPlus;
}
// * * * * * * * * * * * * * * * * * * * * * * * * * * * * * * * * * * * * * //

dimensions      [0 0 0 0 0 0 0];

internalField   uniform 0;

boundaryField
{
    FrontBack
    {
        type            empty;
    }
    Top
    {
        type            calculated;
        value           nonuniform List<scalar> 
15
(
142.2859655558263
133.5879772688502
138.0693739039346
144.4119701809272
159.7718734454495
131.368509999121
140.1381790525624
135.3628433485472
153.4492199108271
135.7351739515436
136.0969579775145
136.7688349391898
125.2635440236875
132.9113968010033
123.9517327629692
)
;
    }
    In
    {
        type            calculated;
        value           uniform 0;
    }
    Bottom
    {
        type            calculated;
        value           nonuniform List<scalar> 
15
(
155.5660606504747
158.1179317712918
141.081952699633
142.0443131006581
141.1766321453852
148.4248067308739
142.6975752306009
143.1504497340517
143.4225341683886
134.0552281373321
125.7255039258959
141.5523878922017
122.4061749219172
123.4880890993747
124.1303424985066
)
;
    }
    Out
    {
        type            calculated;
        value           uniform 0;
    }
    circle
    {
        type            calculated;
        value           nonuniform List<scalar> 
32
(
56.22654912041254
22.24763179293181
65.3149607988102
23.77248100173249
19.34321896341364
56.14166007605939
56.74609855338513
23.92614714162289
22.38498903176545
65.54816908019744
40.01632915754208
63.02175320788287
50.41222040219316
15.00710938646563
23.55822016124526
18.06947949253614
39.05255865200395
59.64959422028624
60.98374345474545
24.21395489858063
65.71080575368821
63.83813292469562
62.97483597791366
59.94723001995178
64.08204893125306
45.90917118027599
66.3632835213438
32.00388929589089
38.05393263409341
55.78362592364692
20.93624115748369
43.19001711210147
)
;
    }
}


// ************************************************************************* //
