/*--------------------------------*- C++ -*----------------------------------*\
| =========                 |                                                 |
| \\      /  F ield         | OpenFOAM: The Open Source CFD Toolbox           |
|  \\    /   O peration     | Version:  2412                                  |
|   \\  /    A nd           | Website:  www.openfoam.com                      |
|    \\/     M anipulation  |                                                 |
\*---------------------------------------------------------------------------*/
FoamFile
{
    version     2.0;
    format      ascii;
    arch        "LSB;label=32;scalar=64";
    class       volScalarField;
    location    "906.5";
    object      yPlus;
}
// * * * * * * * * * * * * * * * * * * * * * * * * * * * * * * * * * * * * * //

dimensions      [0 0 0 0 0 0 0];

internalField   uniform 0;

boundaryField
{
    FrontBack
    {
        type            empty;
    }
    Top
    {
        type            calculated;
        value           nonuniform List<scalar> 
15
(
142.2715680854816
133.5532067079843
138.0647101050501
144.3873251043895
159.762726821562
131.3672145113409
140.1101528384436
135.3441006123466
153.4336966927635
135.7404282894804
136.0831860163097
136.7786198317667
125.2373632503248
132.9005636334484
123.9492690310625
)
;
    }
    In
    {
        type            calculated;
        value           uniform 0;
    }
    Bottom
    {
        type            calculated;
        value           nonuniform List<scalar> 
15
(
155.5665311263909
158.111324487459
141.1046261964598
142.0813660341438
141.1891908419803
148.4584156373561
142.7146062915346
143.1706129981102
143.4231209865863
134.0637267443124
125.738886716632
141.5595944015747
122.413233503511
123.4909952530138
124.1459348338391
)
;
    }
    Out
    {
        type            calculated;
        value           uniform 0;
    }
    circle
    {
        type            calculated;
        value           nonuniform List<scalar> 
32
(
56.25252534085658
21.79068785985642
65.2525821248782
25.20067674373144
19.73795489754006
56.26479233312266
56.73050488347237
24.12725788169488
22.15212482744126
65.47276935774316
40.08180664748875
62.9771469574001
50.44662453876923
15.18192961324108
23.08651408715277
19.50613123783485
39.04380509337079
59.70651715458502
61.08488003313656
26.3400102672388
65.79037592210652
63.75104511371514
63.03997359658761
59.8462438909861
64.16974045167916
46.06658010233799
66.43729017336847
32.22396046804546
37.87536992519703
55.66289822778503
21.380718938111
43.05744289027909
)
;
    }
}


// ************************************************************************* //
