/*--------------------------------*- C++ -*----------------------------------*\
| =========                 |                                                 |
| \\      /  F ield         | OpenFOAM: The Open Source CFD Toolbox           |
|  \\    /   O peration     | Version:  2412                                  |
|   \\  /    A nd           | Website:  www.openfoam.com                      |
|    \\/     M anipulation  |                                                 |
\*---------------------------------------------------------------------------*/
FoamFile
{
    version     2.0;
    format      ascii;
    arch        "LSB;label=32;scalar=64";
    class       volScalarField;
    location    "1966.5";
    object      yPlus;
}
// * * * * * * * * * * * * * * * * * * * * * * * * * * * * * * * * * * * * * //

dimensions      [0 0 0 0 0 0 0];

internalField   uniform 0;

boundaryField
{
    FrontBack
    {
        type            empty;
    }
    Top
    {
        type            calculated;
        value           nonuniform List<scalar> 
15
(
142.2736859325734
133.5680168633485
138.0694660246783
144.4014137276168
159.7701108903653
131.3685081735409
140.1226676257443
135.3565838566785
153.4342685790934
135.7447842616923
136.0929755913766
136.7730121728857
125.2442006930261
132.9026815462025
123.9471204949063
)
;
    }
    In
    {
        type            calculated;
        value           uniform 0;
    }
    Bottom
    {
        type            calculated;
        value           nonuniform List<scalar> 
15
(
155.5653206848181
158.1127777198861
141.0924050327529
142.0693928063033
141.1836633222335
148.4447589103576
142.7055664382328
143.1664224032642
143.4237657287387
134.0570375216604
125.7335562545243
141.5537971689278
122.4119144525166
123.4917352965394
124.1405144155462
)
;
    }
    Out
    {
        type            calculated;
        value           uniform 0;
    }
    circle
    {
        type            calculated;
        value           nonuniform List<scalar> 
32
(
56.36759761032418
22.08977175169241
65.31828526748245
23.82925301629012
19.16148337841009
56.18479352189112
56.81377109513485
24.17747248153253
22.32391717447732
65.53668064050854
40.19441218568524
63.04946810833392
50.30843692583287
13.63381253525971
23.66678573131188
19.05785810696373
38.88322642843713
59.59630087098009
61.01493337163074
25.1817961246449
65.72358599394553
63.81656487321129
62.95492371072186
59.91682574084526
64.10373640345487
45.97006149017958
66.36431411760687
32.0957180453638
37.9940382281376
55.7443418240759
21.12693243917477
43.14461617161041
)
;
    }
}


// ************************************************************************* //
