/*--------------------------------*- C++ -*----------------------------------*\
| =========                 |                                                 |
| \\      /  F ield         | OpenFOAM: The Open Source CFD Toolbox           |
|  \\    /   O peration     | Version:  2412                                  |
|   \\  /    A nd           | Website:  www.openfoam.com                      |
|    \\/     M anipulation  |                                                 |
\*---------------------------------------------------------------------------*/
FoamFile
{
    version     2.0;
    format      ascii;
    arch        "LSB;label=32;scalar=64";
    class       volScalarField;
    location    "15.8";
    object      p;
}
// * * * * * * * * * * * * * * * * * * * * * * * * * * * * * * * * * * * * * //

dimensions      [0 2 -2 0 0 0 0];

internalField   nonuniform List<scalar> 
808
(
0.105373
0.00197138
0.0223215
0.105748
-0.208036
0.00279871
-0.0118859
0.0140864
-0.118949
-0.0388905
0.025524
-0.131182
0.00972612
-0.002565
-0.272011
0.00718946
-0.282133
0.00340916
0.0208502
-0.0089957
0.0262277
0.374878
0.0598476
-0.0168983
0.452118
-0.181316
-0.0594197
-0.000470514
0.00481496
-0.000485636
0.00155845
0.00286177
0.00765145
0.00210377
-0.0973477
0.6242
-0.000234273
0.00737046
0.00622054
0.00330758
-0.0685638
-0.0630035
0.0221672
0.0112007
-0.192257
0.0769644
0.00324752
0.0122253
0.00064978
-0.158318
-0.00791404
0.00359963
0.0313246
0.000228836
-0.0961627
-0.00298032
0.00368237
0.0301196
-0.0306991
-0.00989879
-0.280206
0.00109418
0.0248371
-0.19278
0.0172471
0.0329787
-0.25382
0.0103168
0.014873
-0.256393
0.00882139
-0.283659
0.00859682
0.00757968
0.186878
0.00118205
-0.028435
-0.0752237
-0.00602641
0.308226
-0.132298
0.00272575
0.0192127
0.268963
0.00402911
-0.0482909
-0.326206
-0.115583
0.0114218
-0.200825
0.0242927
-0.106014
0.247762
0.149046
0.0283878
-0.266576
0.0101031
-0.129913
-0.116633
-0.234928
-0.000237924
-0.0185434
0.0246432
-0.0433764
-0.140444
0.0461474
-0.20273
0.00897084
-0.00552865
0.0311041
-0.1001
0.328499
0.00294615
0.0220538
0.00274981
0.449319
-0.00423383
-0.241283
0.00630442
0.0421651
-0.303471
0.0227655
-0.00249806
0.0434575
0.10287
-0.059659
0.0968733
0.0368474
0.0194254
0.0557591
-0.259784
0.0140507
-0.0682102
0.117736
0.0110587
-0.0064339
0.0228628
-0.00165933
0.00459438
-0.00896352
-0.290992
0.0345682
0.023168
0.00697105
-0.0390843
0.0391116
0.0829123
0.146255
-0.120931
0.00693458
0.0040729
0.339353
0.0146193
0.5323
-0.277337
-0.108601
0.00358436
-0.211212
0.0196451
-0.129011
-0.276477
-0.287885
-0.263355
0.00255312
0.0482912
0.00965661
0.00526236
-0.264076
0.000686074
0.0209088
0.0235565
0.150943
0.0370051
0.123255
0.0043927
0.0580367
0.0586756
-0.150605
0.00924541
-0.307016
0.0206227
-0.149186
-0.000321257
0.258854
-0.268745
0.106197
0.00749993
-0.171852
0.0155542
-0.119264
-0.272625
-0.0934268
0.0069071
0.0709389
-0.00037382
-0.277323
0.00436965
0.0202804
-0.00284018
0.0696398
0.0518225
0.0154037
0.00864831
-0.277758
0.371768
-0.277826
-0.276311
-0.00578711
0.0257381
0.00353419
0.00109885
-0.352644
-0.272244
0.00337068
0.016438
0.00450127
-0.288887
-0.0437844
0.00809021
0.027049
0.021089
-0.0940353
0.0144116
0.0137048
-0.000124607
0.00931876
0.114502
-0.288885
0.0443213
0.0018741
0.107328
0.00317042
0.00467485
0.00158724
-0.111756
0.0225997
-0.00485479
-0.00109306
0.00299891
0.0017835
0.0021367
0.000721698
0.00326753
-0.00454865
-0.00260473
0.000232542
-0.00156766
0.00044573
0.00308856
0.0255956
-0.282289
-0.000886047
-0.0014315
-0.166971
-0.00296931
-0.00563514
0.0166892
0.000813979
0.00608064
0.118817
0.0309176
0.00359946
0.00310549
0.064753
0.0120818
0.0100303
0.0164723
0.0241716
0.0181772
0.0227515
0.0295451
-0.348388
0.270934
0.00524425
-0.0683169
0.0111311
0.00574022
0.00430424
-0.249855
0.277241
0.0136967
0.0323827
0.0217067
0.0721864
-0.166859
0.00953174
0.0289864
0.0796263
0.0180086
0.0193754
0.00813089
0.0209317
0.0202925
0.0236175
0.0327372
0.0149004
0.0297743
0.0471283
0.0246237
0.0250849
0.0129424
0.0105311
0.0286608
0.00805796
-0.462587
-0.109043
0.0232213
0.0541553
-0.174866
-0.246316
0.0159925
0.0084351
-0.279485
0.118023
0.149783
0.00432905
0.00356192
0.041249
-0.00114176
-0.197712
0.0158306
-0.00109813
0.010648
0.00758345
0.00702496
0.0128104
0.0456473
-0.0197378
0.0112133
-0.271227
-0.00121387
0.01514
0.0432335
0.0806053
-0.00360593
0.225202
0.0108744
-0.166791
0.545288
0.0498959
-0.00237201
0.0114303
-0.079031
-0.0585285
0.0465118
0.0137728
-0.0270889
0.0157421
-0.0636807
-0.254569
0.0530757
0.0962115
-0.0752687
-0.267078
-0.279941
-0.277388
-0.27823
0.0619196
0.0108811
-0.00151436
-0.0445733
-0.0521748
-0.0030681
0.0136903
-0.000267942
-0.456409
0.0654365
0.0198478
0.011957
-0.361674
0.0584001
0.00693254
0.100909
-0.294121
0.0465469
-0.0470977
0.0519531
0.0466336
-0.272203
0.016127
-0.304814
-0.00506152
0.039131
0.0132735
-0.00426046
0.00655571
-0.133149
-0.295939
-0.00926509
-0.00949123
-0.0471381
-0.00631063
-0.0191769
0.0154946
-0.0324195
-0.0198297
-0.159193
0.0315502
0.00400286
-0.00203709
-0.349383
-0.146118
0.0527485
0.00451636
-0.164225
-0.0542314
0.423625
-0.314653
0.0036155
-0.158858
0.00589499
0.030682
0.0089882
-0.0209447
-0.0199345
0.0240973
-0.083641
-0.019592
-0.00587358
-0.00755162
-0.00857704
-0.00790723
0.0135023
0.105472
-0.0197332
0.00163233
0.00407347
0.0114125
-0.0855262
0.0119267
-0.340481
-0.0580462
0.0259187
0.00289583
-0.255344
-0.29517
-0.0330069
-0.0722932
-0.0561044
0.0119394
-0.137886
-0.217102
0.228725
-0.270597
-0.408587
-0.34704
-0.0638918
-0.105029
-0.288303
0.348931
-0.0626505
-0.278864
-0.00536252
0.0335917
0.573128
-0.000934859
0.00475158
0.0393571
-0.0636611
-0.0255461
-0.27892
-0.275418
0.0377413
0.0516495
0.0476118
-0.234749
-0.263335
-0.22596
0.00101029
0.00845859
0.0815485
-0.0339829
-0.0559414
0.0682548
-0.0295547
0.0116978
-0.200725
-0.30232
-0.0332128
-0.115129
0.00672498
-0.00278005
0.0672655
-0.061001
0.00527938
-0.412131
0.450659
-0.2868
-0.273543
-0.0505551
0.00523112
-0.275348
-0.266666
0.110588
-0.290949
-0.224327
0.861301
0.00106696
-0.308439
-0.0100077
-0.126131
-0.000853953
-0.415833
-0.277271
-0.267611
0.00240185
-0.287105
-0.312545
-0.0234222
-0.0354886
0.0981682
-0.264428
0.0202392
-0.450646
-0.320661
-0.381127
-0.181859
0.00862114
-0.00373291
0.0953071
0.119759
-0.0553886
-0.268761
0.303663
0.0720388
0.00869828
-0.386616
-0.446683
-0.283846
0.0171837
-0.302421
0.0782731
-0.00444078
-0.036694
-0.262248
-0.203236
0.00267462
-0.275791
-0.287575
-0.00543416
-0.0229361
-0.152173
-0.0217455
0.0257479
-0.33538
-0.287198
-0.113682
0.0925336
0.0106698
-0.287586
-0.28524
-0.304506
-0.274112
0.0306138
0.0912581
-0.00295063
-0.295713
-0.297252
0.0946639
0.0120664
-0.213789
0.0198697
0.0201079
-0.328476
0.0187019
-0.237204
0.0215809
-0.292634
0.0158058
-0.00438275
-0.360164
-0.448837
0.000281221
-0.429858
-0.40999
0.0199293
-0.0676129
-0.27185
-0.000900619
-0.271862
0.0204305
0.0745879
0.0536336
-0.285481
0.0448028
0.0399795
-0.443072
0.00766581
-0.286774
0.00478929
-0.284742
-0.501223
0.0998868
0.271026
0.441897
0.00703808
-0.0059712
-0.00113734
-0.293353
0.644552
0.00558458
-0.212511
0.0153095
-0.0516059
0.0770504
0.48466
-0.365218
-0.0547071
-0.05011
0.0227173
-0.00329558
-0.445197
-0.265707
-0.279289
-0.293773
-0.248425
-0.0111517
-0.325934
0.0680784
-0.26467
-0.304558
0.513196
0.589605
-0.306415
0.119814
-0.273227
-0.0370698
-0.0954117
0.408323
-0.0764596
-0.279093
-0.00551208
-0.499579
-0.0334224
-0.195455
-0.0196764
-0.310805
-0.273914
-0.00179939
-0.00214101
-0.279989
0.450922
0.675455
-0.278121
-0.294567
-0.282097
-0.0639211
-0.301657
-0.277065
-0.183692
-0.279448
0.754959
-0.336455
0.743874
-0.369214
0.330061
-0.271461
-0.00783906
0.173676
-0.492304
0.230431
-0.273529
-0.307981
-0.334884
0.870687
-0.271497
0.207891
0.149525
0.644208
0.120439
-0.32023
-0.282695
-0.203572
-0.00158202
0.0883635
0.523712
-0.000148301
-0.031031
-0.279764
0.121484
-0.106836
-0.329306
0.0152823
-0.299308
-0.138578
-0.150649
-0.320765
-0.00786836
0.0976623
-0.017199
0.068727
0.107471
-0.329495
-0.349278
-0.0336352
0.00261055
-0.456401
-0.503754
0.178439
0.191092
0.0805889
0.670035
-0.0659355
-0.256521
-0.37626
-0.296733
-0.0476483
0.0827794
0.763228
-0.442822
0.379736
-0.0248692
-0.419435
0.149454
-0.0719113
0.387909
-0.157701
0.00413627
-0.286787
-0.0634404
0.201726
0.813196
0.33419
0.760597
-0.293545
-0.298358
-0.370934
0.167613
0.266217
0.0540312
0.382051
0.145118
0.497909
0.276332
-0.0224678
-0.167678
0.0291844
-0.296729
0.883077
0.41175
0.651057
0.512026
-0.260915
-0.286221
-0.276274
-0.274066
0.0395737
-0.371891
0.111416
0.597112
-0.297102
-0.00270669
-0.273478
0.182657
-0.32547
-0.362118
-0.181021
-0.284692
-0.296339
-0.285199
-0.295433
-0.141828
-0.368916
-0.115804
-0.211236
0.144081
0.65628
-0.217181
-0.273507
0.827536
-0.27497
0.290625
-0.232116
0.392605
0.0824272
-0.278253
-0.389834
0.445421
-0.250744
-0.315989
0.195141
-0.270044
-0.0398753
-0.292262
-0.114845
0.019981
0.571426
0.779976
-0.287563
0.226873
-0.294449
0.82162
-0.0269519
-0.308395
-0.0435451
0.763635
0.204399
-0.315641
-0.276219
0.456894
-0.209591
0.0360706
0.352883
0.251598
0.297025
-0.248569
-0.312185
0.688916
)
;

boundaryField
{
    FrontBack
    {
        type            empty;
    }
    Top
    {
        type            zeroGradient;
    }
    In
    {
        type            zeroGradient;
    }
    Bottom
    {
        type            zeroGradient;
    }
    Out
    {
        type            fixedValue;
        value           uniform 0;
    }
    circle
    {
        type            zeroGradient;
    }
}


// ************************************************************************* //
