/*--------------------------------*- C++ -*----------------------------------*\
| =========                 |                                                 |
| \\      /  F ield         | OpenFOAM: The Open Source CFD Toolbox           |
|  \\    /   O peration     | Version:  2412                                  |
|   \\  /    A nd           | Website:  www.openfoam.com                      |
|    \\/     M anipulation  |                                                 |
\*---------------------------------------------------------------------------*/
FoamFile
{
    version     2.0;
    format      ascii;
    arch        "LSB;label=32;scalar=64";
    class       volScalarField;
    location    "1994.5";
    object      p;
}
// * * * * * * * * * * * * * * * * * * * * * * * * * * * * * * * * * * * * * //

dimensions      [0 2 -2 0 0 0 0];

internalField   nonuniform List<scalar> 
808
(
-0.03557614396295228
0.04480926273404399
-0.01148341755324736
0.03536233861700886
-0.3026260376940273
-0.0549145842158033
-0.01478823118695964
-0.02401405190291813
-0.1993882344627745
-0.08534782047316945
-0.01003758876174866
-0.2569048206258352
-0.03060833551549317
-0.01320115822011122
-0.1199948580624023
-0.01409836515060716
-0.1374338858507231
-0.01361559316551368
-0.01235956767059953
-0.05669048659503863
-0.006418934108452386
0.1181104240917856
-0.06123970142551907
-0.07307105394182044
0.1763234756022559
-0.09966408473665239
-0.1546519140790936
-0.02033244063270663
-0.01738236799054458
-0.02584433268423796
-0.02021591630612059
-0.05958686407983284
-0.02284373556821256
-0.01682338862469495
-0.1009889086178702
0.3440556576316723
-0.0388229659950168
-0.01660189348115789
-0.02317230367006102
-0.02653931948951709
-0.09171400593614544
-0.1286061165103743
-0.0511162752697571
-0.02087698061845216
-0.05414303254347699
-0.04027136877295173
-0.01221665223559147
-0.18695884642442
-0.0274631562303467
-0.2067714351875346
-0.01641362119497832
-0.06862411342811385
-0.05986091270646234
-0.01438653851703825
-0.1911772723013911
-0.02881566004220571
-0.01048743583250127
-0.01380970152128571
-0.1020097782428613
-0.04045782628407876
-0.1044345846330576
-0.1280507925077995
-0.01368625316075629
-0.1307481807990342
-0.01718458263986457
-0.0509179690757884
-0.1675126300413334
-0.03558511301386689
-0.01486038390313189
-0.4447809050342696
-0.02684058480626116
-0.3060604650471946
-0.02192240872114966
-0.02064945824934331
-0.06699869048346033
-0.01745236558123972
-0.04329512284563364
-0.3595582812049526
-0.03570349409909559
0.04177856740451653
-0.09046363557184171
-0.01718742760718184
0.0569102444989335
0.04373648235763097
-0.01670822492546387
-0.05306307848570106
-0.5471018871632674
-0.2237073433879156
-0.0531383925697109
-0.1116628199225847
-0.05773612436019483
-0.1346143325874543
0.04039269388634788
-0.02421695474672303
-0.06091685224911016
-0.1217591675569082
-0.03842415375508406
-0.05166516850573726
-0.1179412914992468
-0.141301473610224
-0.05233551968373986
-0.04814427766969928
-0.05537551155950843
-0.04555740869209791
-0.05784559411559528
-0.07360272443516606
-0.04052318328201811
-0.01096378182293826
-0.04087497941110729
-0.1261426232994569
-0.0510333017804455
0.08311170514100773
-0.042945468021068
-0.007833380372667514
-0.0277418130376148
0.1802143859216196
-0.03962039605641298
-0.2722352151675222
-0.02044087981717182
-0.05460118201908946
-0.03243291514495181
-0.04814014563299266
0.01278795325989307
-0.04981005922788719
-0.03442031071263266
-0.214906281306917
-0.04255583034132187
-0.00478307464207258
-0.07736496909021603
-0.06790574133544779
-0.1516663351952559
-0.02109466590317704
-0.07636235429772766
-0.04154897968977127
-0.02284023234812409
-0.01637994269388931
-0.006215529950685978
-0.007543829385397136
-0.052963686639309
-0.05069778691599457
-0.2080255766534806
-0.05779864898012408
-0.008475291454836106
-0.02262956158852186
-0.1455155937904429
-0.002081772809129046
-0.07749132573281613
-0.02342217250035043
-0.0007830597309410553
-0.01007944419390983
-0.03374121865646374
0.09530753061849058
-0.03957405134896025
0.2526115133112458
-0.2601587962574808
-0.1309016239129689
-0.03736182815241141
-0.09101544905685702
-0.009030168632539692
-0.1122127309698605
-0.1802687186032514
-0.211937889580879
-0.1839195092234003
0.05555906648647194
-0.06216825809969923
-0.02035344795993668
-0.06771271076377428
-0.1752546114223492
-0.02377556776945589
-0.01867232255904201
-0.05304126082944548
-0.01841915277859281
-0.006281102645127718
-0.1100665953150805
-0.02298888714948206
-0.04636313460718613
-0.06915312139476444
-0.1635129385955648
-0.03360893654878841
-0.39366324187803
-0.01779800291349702
-0.2232627370711153
-0.0452017798782868
0.03084195743317669
-0.1044915998829602
-0.01455188763481099
-0.04189399872686504
-0.10615242836028
-0.01775876760531164
-0.09718119718268954
-0.2034202873976582
-0.07288372856497888
-0.02385127845511686
-0.04952927886524277
-0.04359946830837173
-0.202014868951522
-0.02200112859917182
-0.01906345087940603
-0.01136241582340343
-0.05505751098024725
-0.05178182095794358
-0.0225385809030473
-0.02074893251406888
-0.2437836454507281
0.1278941052614671
-0.2015585004560821
-0.2041470979860071
-0.01174946902328272
-0.01154541090917664
-0.06752138332962031
-0.00956406093045342
-0.5084838554466443
-0.1262733007569049
-0.01913813410825276
-0.00160172284290498
-0.02417876639863875
-0.285237292957352
-0.2743483906167101
-0.007338482603454141
-0.01792828388019869
-0.002367238457284717
-0.3449098793665542
-0.02836656521900167
-0.02924353039493831
-0.01257690794947938
-0.01968338478562701
0.05063608201350981
-0.1164041074404315
-0.01378399814395005
-0.02077899632375189
-0.04332915946072009
-0.0182569329661073
-0.01623233121339348
-0.02339219052107276
-0.06689863181176894
-0.01165572974274173
-0.01901505393465198
-0.008708032454755051
-0.001150463578818088
-0.02947627327558755
-0.001725837550957787
-0.002194504319818132
-0.006033901911860737
-0.02557416310217414
-0.00807896441593341
0.001646340259512403
-0.004092010675710689
0.001118032047535093
0.0024048936919957
-0.008564955620087553
-0.1369718831129298
-0.003003396965685747
-0.0006408285983531638
-0.0480498483904291
-0.02141520375487085
-0.0247062800795232
-0.01422211265588518
-0.006108552431422282
-0.0209659145636507
-0.03774530214590346
-0.01444620800107157
-0.01266477948519687
-0.01198423429721115
0.00565039424988408
-0.01001549440955418
-0.01265485478665064
-0.01124976760807177
-0.01055974871876524
-0.009993505033470476
-0.01098965777245856
-0.01395591237957266
-0.30487902946046
0.06079057743191714
-0.01510847233590106
-0.01654757831037235
-0.01280639217840129
-0.01257436651042754
-0.00851856608122656
-0.09935423368923089
0.009341317433002639
-0.01408316614730146
-0.01456383372008025
-0.01080531377356424
-0.05303264358755049
-0.008790677665939368
-0.01398724042821409
-0.00915738113484486
-0.001773545622931927
-0.01001673214093338
-0.01041346279641587
-0.02478120360832948
-0.01617001773998672
-0.01217544102533607
-0.01330664765143788
-0.009104988967391316
-0.01328038359206074
-0.01117464158958543
-0.05763269419289911
-0.01292425000128949
-0.01183749644972659
-0.008823140627055182
-0.01505713530589226
-0.01416607839178084
-0.01573559683631957
-1.379703740764453
-0.09854408232324742
-0.01241857095849784
0.02226364189242045
-0.1655013565788513
-0.09363013931689496
-0.0114551277355479
-0.01412379252784553
-0.2554790874772351
-0.03056213184677914
-0.02019637799764188
-0.01117270800888237
-0.01990636901743409
-0.01124492327645654
-0.030699609924454
-0.4149891004528701
-0.01213637460015144
-0.01408984247321944
-0.004790201676171169
-0.01038496514464528
-0.009153979004966555
-0.01426365212428125
-0.009638901447306563
-0.02641332686449744
-0.01135373078434014
-0.1614183275213915
0.01756864985512765
-0.007717354396651386
0.002870159653948892
0.01229817847578607
-0.04757555568009076
0.02960681957222874
-0.01269889244479822
-0.1359178899629616
0.2820639998547129
-0.007582324033767573
-0.01315076721282138
-0.008343530367887609
-0.03332648559587896
-0.122810841126116
-0.01339300483908713
-0.01231325942807654
-0.01717716141614502
-0.01363830995574397
-0.04103142393640474
-0.2147026595123623
-0.01098943797094352
-0.04150897562336145
-0.03962542071623849
-0.1684741324621564
-0.1611256726898404
-0.1508730990455182
-0.2580506291298323
-0.005756636240810156
-0.0211998265704583
-0.01487338921860746
-0.01309011048879989
-0.03292443797477285
-0.02438812817529878
-0.01439302337940103
-0.01504278563035441
-1.081901414051544
-0.004002850794324764
-0.01378371273878928
-0.01832190867311233
-0.01756053680914783
0.004642094058023054
-0.0138815203366778
-0.02759902452148835
-0.1665149026854713
-0.0135486202806727
-0.02182100152067717
-0.01418703562010648
0.002281837284259711
-0.1783204077838625
-0.01332165008472745
-0.1474703660621288
-0.0159754733092425
0.009887235703332558
-0.01434566381978124
-0.02330099068082077
-0.01594412447827759
0.006071306925325803
-0.2756798965601042
-0.02573005842152748
-0.0162890877716763
-0.01024522609314181
-0.00972361230995978
-0.03041325020300071
-0.01426595469582743
-0.02055517971146192
-0.02124467202334746
0.009358751877852064
-0.1007440143345687
-0.02200429944733253
0.009295579139513137
-0.05194873756748594
0.1610931149070401
-0.1032620483625127
-0.3219396875363584
-0.02995582844442065
-0.02543010739701848
0.1490317947306787
0.09276927322444473
-0.003353227512140098
0.05083893900240797
-0.01571609849551288
-0.01424484682316054
0.002309962948608149
0.0114336390796426
-0.06690060735427621
-0.005155470295404783
-0.05742418489046011
-0.02252875926169983
-0.01569426532173773
-0.03651453112583905
-0.03292587779526488
-0.006659076031585135
-0.01477331692346309
-0.03905591927416333
0.03509160372021593
-0.03880859977583823
-0.01353208106468759
-0.1166366782487466
-0.03171653138646592
-0.03872973626529138
-0.6776112324650809
0.01631800005290512
-0.0111453400594357
-0.005265111007999279
0.1711495117584415
-0.08978273154073378
-0.0351424942634332
-0.2468784451628833
-0.01624850498894161
-0.01651893262868592
0.0632711279097818
-0.1851541144618767
-0.2250968966481521
-0.1952623247179389
-0.6862007771460205
0.009640861005115374
-0.01863056489009021
-0.01598320980305596
-0.0845199946245991
0.1177649362599408
-0.02145831317680809
-0.2512542112848999
-0.03517678044154728
-0.006493551192804084
0.276397421221148
-0.01112054372827261
-0.09365761375033488
-0.1491702889969838
-0.004692364384769541
-0.04060758873351579
-0.04475876836397815
-0.2028462839801564
-0.008782145434960548
-0.04202879512192579
-0.003037757265163968
-0.5513606157969203
-0.2001137347839685
-0.1756380971845536
-0.02292782924422998
-0.007374208046392662
-0.06015555423270383
-0.05811084288378668
-0.01560670397727212
-0.0677395145022104
0.003578354056288335
-0.01824059262673498
-0.09585180144585495
-0.2684212343034723
-0.008529132508189638
-0.02589360561297067
-0.02197302573737238
-0.07443784400156406
-0.09103904063840831
-0.08793949294436573
-0.01125537585083628
-0.9245051827025915
0.160611032058082
-0.08144691794837843
-0.2570371761205684
-0.04250617839578832
-0.009961435373867785
-0.2472893489559584
-0.1849667747320149
-0.03310688479245665
-0.122006441886999
-0.01815044774131389
0.5622529385628905
-0.02406168858470918
-0.2245135227671345
-0.02607406189235667
-0.004839835324627582
-0.0116609427285997
-1.256039644426184
-0.1842344087931178
-0.2335188646339277
0.005398336262398151
-0.03742761176012479
-0.2467025542196259
-0.06554725554341324
-0.05105539676470819
-0.1419389696891453
-0.1918974172400167
-0.06800077479957232
-1.229627061594077
-0.1492814030007879
-0.5235906019164565
0.07826124920068019
-0.007015934608611557
-0.02188494042207665
-0.04276342972629546
-0.04054228432228004
-0.02860853823401558
-0.1320989338263962
0.07985993579676859
-0.003976135910508761
-0.009697916070326525
-0.5769066123654757
-0.8627748376155107
-0.1849004347810341
-0.007998850716538221
-0.1318189049417242
0.0008341355591153387
-0.000769017805370378
-0.002134536402226361
-0.06057202838489027
-0.2387861466556248
-0.01345090256317443
-0.1192969517795399
-0.1542704724456891
-0.01320553992213547
-0.0357458711376108
0.02298258748854179
-0.05744215817165353
-0.06992748877471282
-0.5019712344746883
-0.2479723573691928
-0.08117586632496378
-0.07273062970677448
-0.01983631765059119
-0.1176785536637791
-0.1575750775229398
-0.07792412413963247
0.02591893248975529
-0.08466078985339252
-0.04825013666962053
-0.01494382839605773
-0.1116287305378334
-0.2735872632161991
-0.05698953155158121
-0.01847928148618463
0.001502508314064249
-0.01015249428868093
-0.01103650562360219
-0.2231026117890701
-0.01456703444133035
-0.222293039160117
-0.01066104535376541
-0.06515872169506524
-0.003453259175849211
-0.0231948577718363
-0.3799573740765528
-0.9102181132981032
-0.01129569851482231
-1.05070160949767
-0.6124400488955706
-0.01078835679231788
-0.6528091892406699
-0.1774292762150533
-0.005262038993077202
-0.1288203385654125
-0.01717982969832151
-0.1218270174968472
-0.06729611805658559
-0.07486464204333082
-0.005453933582207438
-0.003071394188320908
-1.333896790810196
-0.01109007700884701
-0.1897861980138044
0.0005994989858885749
-1.015372257162911
-1.232203374785431
-0.08149511094799573
0.01983341472246666
0.1643424681276141
-0.004899466236928492
-0.022999644582153
-0.004300945111103527
-0.2493998874213411
0.3661335351882781
-0.04102805351713628
-0.2105529180599532
-0.01504613853834115
-0.6592175177915014
-0.07498387566000332
0.1914256846314498
-0.2888208231134569
-0.04990774341551232
-0.06890465263746708
-0.01582125885923719
-0.02165967535581341
-0.5775874012963578
-0.1464165786607869
-0.08860332427198903
-0.1246080431205212
-0.5574774173366199
-0.04432907851886558
-0.9106962812224946
-0.0009628241716008085
-0.2382669023124493
-1.044990049741731
0.1704454462886219
0.2926764212836633
-0.1773172377813245
-0.1936445081568558
-0.2066809753430184
-0.06809313828054074
0.0237016417560258
0.05076800713397875
0.004454949904078972
-0.1608041946142974
0.02488862182389688
-1.353265601968837
-0.08529890417737823
-0.4726486118506867
-0.3290945974765766
-0.2075530182776144
-0.1759951510149871
-0.01693897253043329
-0.01542103852309502
-0.1014570986469179
0.1701039879658068
0.3858284652468366
-0.2216001679941885
-0.1465170130487281
-0.2394466752972716
-0.06253051476278244
-0.1548669746429862
-0.164869724716836
-0.1255993135818694
-0.1169692633745067
0.467518961179422
-0.2716387860436277
0.4298587134297642
-0.5990764312340499
0.07051505801558368
-0.2009448807540291
-0.06623296565901185
-0.07406685730233241
-0.8784316203136805
-0.2233683391284742
-0.1893566000967244
-0.3473150319155918
-0.4579669834026677
0.5705640252509775
-0.205036911830182
0.0002543541698113479
-0.07072237980212379
0.342863213854617
-0.03747381036057448
-0.1241756724127335
-0.1785224506091818
-0.06425120077580841
-0.01646060915332806
-0.1935604145643565
0.1918004246182135
-0.01267345800147484
-0.09639764145561135
-0.1690021018772068
-0.3123601310811364
-0.3134828459756456
-0.07061382286015747
-0.01010412621842324
-0.07506647158728948
-0.6576229328382217
-0.6666786415509228
-0.3356447631585883
-0.05779559290687842
-0.05190884361423689
-0.02531010631331422
-0.06773645367075636
-0.05776369749962853
-0.3597192683081507
-0.9541160990321409
-0.009683938194116035
-0.08306310067522284
-1.134858574536077
-1.030171677727538
-0.1035660317805998
-0.03858528800599747
-0.06997519879284383
0.3913416619457502
-0.3449181992273723
-0.0519303297481821
-0.5972207156268059
-0.1279042239234713
-0.2533274539479708
-0.2093710277280774
0.4744368280677011
-0.6270510114351372
0.07236797032588238
-0.02943651379562154
-0.5581704993385289
-0.05157418258040752
-0.3595604000786135
0.1062805959497391
-0.1901205369019079
-0.05991244370740639
-0.1332933952492181
-0.3637462843979629
-0.08936395682027988
0.5136365579727997
0.08526901506518439
0.4714674062688887
-0.1177437332015673
-0.2000902743935978
-0.5205076336048222
-0.1298552779195834
0.02683576281941055
-0.05362415036021905
0.1032741689211891
-0.3098336211752086
0.2362038535619034
0.008925586797517376
-0.003304154408313525
-0.5145783691104274
-0.1858091619480975
-0.09314868091232686
0.5812403112781523
0.1383596803801504
0.3471700726765778
0.2257340616704991
-0.5594845901917295
-0.2146079796298177
-0.2185193507712391
-0.2383161606599066
-0.06039581257687295
-0.6958257271583892
-0.195115208932033
0.3065448935963697
-0.2103926596170913
-0.01106467779354119
-0.1712308830629938
-0.009541207423447879
-0.1607415859602524
-0.435783727101641
-0.077127698584236
-0.197829769345244
-0.0728618923880154
-0.09843087895402725
-0.1411231649713882
-0.07367355658520927
-0.4524089887936781
-0.4164874240694744
-0.0268909168735123
-0.07441860736036614
0.3258113699593512
-0.2469269989373892
-0.1816560137562849
0.5260752940667475
-0.2040731592977399
0.01741346098801231
-0.4486600895292785
0.04495227619528026
-0.06207806940296089
-0.1566376182518522
-0.5822279420353369
0.1627122419394325
-0.5822070671797307
-0.533101157829262
-0.1065263304690884
-0.5057021048126631
-0.03724985318034552
-0.1458670551555962
-0.4083123684544015
-0.01632097675464051
0.2860746518714288
0.4893840328366863
-0.1599611060946177
-0.008235250938716005
-0.06991143836100772
0.525376947681872
-0.03329973728584611
-0.4384193380908092
-0.03261372907696751
0.4600407175985229
-0.01486176293459203
-0.5424636068829923
-0.2414682136558516
0.1754682788969848
-0.3097537588355314
-0.1782044929686074
0.05238749047004319
0.03357808441068488
0.05420758071723522
-0.2987193501549767
-0.1566510003539998
0.4127567173276998
)
;

boundaryField
{
    FrontBack
    {
        type            empty;
    }
    Top
    {
        type            zeroGradient;
    }
    In
    {
        type            zeroGradient;
    }
    Bottom
    {
        type            zeroGradient;
    }
    Out
    {
        type            fixedValue;
        value           uniform 0;
    }
    circle
    {
        type            zeroGradient;
    }
}


// ************************************************************************* //
