/*--------------------------------*- C++ -*----------------------------------*\
| =========                 |                                                 |
| \\      /  F ield         | OpenFOAM: The Open Source CFD Toolbox           |
|  \\    /   O peration     | Version:  2412                                  |
|   \\  /    A nd           | Website:  www.openfoam.com                      |
|    \\/     M anipulation  |                                                 |
\*---------------------------------------------------------------------------*/
FoamFile
{
    version     2.0;
    format      ascii;
    arch        "LSB;label=32;scalar=64";
    class       surfaceScalarField;
    location    "1";
    object      phi;
}
// * * * * * * * * * * * * * * * * * * * * * * * * * * * * * * * * * * * * * //

dimensions      [0 3 -1 0 0 0 0];

oriented        oriented;

internalField   nonuniform List<scalar> 
1171
(
-0.9350030990437339
0.9350030990889114
0.8747173739226095
-1.187695892491541
0.3129785185542916
-0.1833258339059406
-0.6763671545256026
0.8596929884278877
0.06499691203892025
-0.1265589562353688
-0.1969172645041898
0.3234762206422078
-0.8747173837932521
0.03979640687643993
0.8349209769413142
0.8084293444008429
-0.1727740441852891
-0.6356553002390832
0.8149692446644564
-0.9676115518983467
0.1526423072317017
-0.2659940711463055
-0.1054812485094951
0.3714753196522333
-0.03487664771330518
0.5355372945849186
-0.5006606468448701
-0.4979079971185351
0.812784919269346
-0.3148769221520674
-0.3925530177227247
0.9850784954526247
-0.1701092457490378
0.3267138897186065
0.01638475783134689
-0.3430986469298568
0.985243816067764
-0.0001653197268874466
0.3436391217685499
-0.01692522656412565
0.9864033266142879
-0.001159506768484063
0.5919548477718406
-0.7752806863996806
-0.7207267900578782
0.55786425882232
0.16286253123405
0.1986539575180301
-0.6965619506042399
0.5484184221384185
-0.9227876749081878
0.3743692528095179
-1.065201386074289
0.6793594219127534
0.3858419640922164
-0.5934562008641413
0.558579557835967
0.01703957629098772
-0.2555859306281894
0.2385463543360682
-0.02700271424934839
-0.4402756476874752
0.4672783620248055
0.385338719901631
-0.4908199608409995
-0.8511195468795892
0.8719712360016216
-0.02085168911411244
0.9957433914263268
-0.00934006209647607
0.8953497917371723
-1.110556820127086
0.2152070283995593
0.9904527500921454
0.005290645025517788
-0.6567311192753481
-0.06399567576232906
1.19062909094794
-0.7976479990897526
-0.3929810918459619
0.1393332062194375
-0.1100270933589887
-0.3026125475646945
0.4126396408971814
-0.2873148348024364
0.1933508514788724
0.09396398332556732
-0.6791726757034862
-0.5085232105353585
0.968226786839577
-0.07287699216110684
0.0159089492584586
0.7756062967859093
-0.791515246025764
0.5521516051829325
0.6384774922449336
0.4255102032297466
-0.0356888296613611
0.4210275522945243
-0.779146929369981
-0.08151724778326508
0.8606641771765668
0.4970418697746925
0.2530972011142871
-0.7501390708920888
0.01994192690777005
0.4412428280874843
-0.4611847550251787
-0.4976754375900459
-0.5675259485172351
-0.4463956138643846
-0.6641612024067012
-0.02836677800346961
0.267756117600742
-0.2393893395737868
-0.8836388991194194
0.006967344449824314
0.8766715546611822
0.2822019675584921
0.08927335968590473
0.7638579024718285
0.04457144494331482
-0.5377496613706246
-0.05570654185619663
0.03228519583479516
-0.8114321235343726
0.07812883885137678
0.8456845830648276
-0.9238134219163023
-0.3314129424748195
-0.04819614130849757
0.3796090837425468
-0.6443471430175273
-0.2392917509785256
-0.6280400870384559
0.7061689234350066
0.6118586774124395
0.2009262455971895
-0.5363494708572831
0.9061413939485464
-0.739398027109422
-0.1667433668127576
0.2445085711214359
0.09837028106365828
-0.3428788522746266
-0.3986272997576758
-0.09219265682565031
-0.239576475404359
0.8514351542095184
0.06094696707051947
0.2925680269216968
-0.3535149940689473
-0.4702251657388827
0.9672670372345009
0.767031429559619
-0.8485486789820208
0.2613368449272744
0.02379684360017594
-0.2851336884500123
1.078816582044969
-1.078816582030104
-0.7851020809277879
0.123050284978022
-0.3199675433284637
-0.8597624887392787
0.8756714442777377
-0.1090009220142123
-0.122086254651462
0.2310871768428372
0.8179671993903392
-0.04236089679395472
0.9874875779261164
-0.7343903732068668
0.187464462525867
-0.3140532483793383
0.1265887858565552
0.8450438438181094
-0.08118593848783812
-0.599103989538662
-0.04537762883465583
0.6444816183812537
0.1205760775255346
-0.2267125271973739
0.1061364495865675
0.7730432072358943
-0.945817248446403
-0.4323573694138736
0.324035984463335
0.1083213850219911
0.4924101171542427
-0.5194128207143166
1.139426353355164
-0.465909987216145
-0.6735163661424217
0.6930307422094313
-0.7195452324745898
0.06677996821358054
0.6527652643441628
0.0949047772340196
0.5686898191396697
0.04975602521849545
-0.6184458443610056
0.1987060556263823
-0.07565578125659264
-0.4814465146407425
0.1500335788491566
0.06228831191336218
-0.8545339474334557
0.7922456355370936
-0.4238908841640063
-0.7161515476849307
0.05942042672885302
0.4154257487535024
0.005601808282964371
0.2994814305635818
-0.8556562563624979
0.5561748258191276
0.4163920657971881
0.5836079342136916
0.5463934644642801
-0.5141082701610122
-0.322283805832951
0.05328129734917267
0.2690025083962603
0.8379819451224068
0.240834645682781
-0.5209340703761449
0.5408759925626753
0.1128132099615613
0.8128396194416754
0.01598347468196949
-0.6150874635095485
-0.8155389424146909
0.8778272511392192
0.5233121915592914
0.07452741946435366
0.2739632788400441
-0.3484906983107064
-0.1320727011690334
0.3885875019667262
0.05265532994310967
0.8946966852294768
-0.8201267691424637
-0.07456991608785447
0.6077071418254506
0.2984342529875514
-0.4269940731192416
0.5590651635377214
-0.4845377414559989
0.4153177888845596
0.1331006334095567
-0.03664000009141182
-0.5786786595331125
-0.1300909114399617
0.7087695709729072
-0.1705787986916179
-0.9082377763811599
-0.6118575684661607
0.3620492841834352
0.2498082843036417
0.584308662928514
-0.5683251902058071
0.2144753000719277
0.9365858259803557
0.05090175208960961
-0.8155389398474245
0.4541175840565022
-0.2096090042109698
0.7670314347375677
0.8894351356300055
-0.889435135617955
0.7951135186376065
-0.8155988567938053
0.02048533814010486
-0.451852679091095
0.8682447466893255
-0.141252602609477
-0.3401939189881816
0.7445514045491323
-0.6670025853752186
-0.07754881917151146
-0.7031127849359955
0.1244341346169953
0.1335966589660235
-0.6713463211495077
0.8485486882499714
-0.9806213894148551
-0.2855921443442352
0.1941081825277685
0.09148396161266148
0.1530960278541533
-0.9408762785692789
0.7877802507176063
0.4645107679060133
-0.03900056467978268
-0.2996387185058236
0.582624656322597
-0.2829859378485432
-0.8830860435155349
1.036182073668756
-0.1550893621174211
0.6436128901550408
-0.74099306016166
0.09738017000594375
0.9347071813580223
-0.5427903284605472
-0.39191685289461
0.8527951382990434
-0.05722321329533813
0.02068857021020653
0.1860789634950623
-0.2067675335155796
-0.7718580917118671
-0.7451634482416787
0.0687962893440624
-0.8597624868321848
0.4979287539966821
-0.5461248865099094
0.08620385538971836
0.6301640856514276
-0.7163679410404755
0.7950536115031227
0.1399494801811718
0.5007000412566092
0.499299958751921
-0.03292509687978174
-0.5464194944609218
0.5793445913494835
0.8997811564147945
-0.00508447312406145
-0.8527951382930165
0.8778272586891904
0.1934073015077613
-0.4489932309868072
0.09220506434877898
0.0247639143859755
-0.1169689783136529
0.5547248858163085
-0.427004871758261
-0.1277200139979518
0.8349209815906442
0.006093618187062905
-0.1015505616450554
0.401962621829996
0.1527622680604515
0.05269538262938085
-0.0249027950648239
-0.02779258815745996
-0.07309017128291136
0.09377874376174847
0.2291821854003988
-0.205385334120128
-1.044524492121457
-0.004290451337598883
-0.1666972334098499
-0.05640995210545893
0.08515631748149204
0.7276905660791915
0.7279516936638492
-0.1443437573487137
0.7226412963352985
-0.6364374391491262
-0.2057972705767475
0.3932617261447898
0.832184291513541
0.002736690087742281
0.2216449210827481
-1.037243775390143
-0.980621383500495
0.2878037745432517
0.8756714468370929
-0.2035840435794372
0.08149779213503064
-0.7234001194226269
0.9157201989230215
-0.1923200794980364
0.389963972232214
-0.01035487808071131
0.735022422561651
0.2804547797415477
0.2889349608239444
0.05470416551057451
-0.6655548168929289
0.6655548169024164
0.1941069818707338
0.6665571952095235
-0.05820563888583144
0.3507736695817869
0.35443399478661
-0.07542751141765669
0.1676325704923746
0.4347817125247983
0.02972905387667908
-0.8830860441384306
0.5502131765354968
0.1943382322229886
0.3338080661964688
-0.1477290970500254
-0.8321842916609485
0.1798312944007512
0.7358889092857923
-0.009154036294186537
-0.775096297629765
0.7842503339002967
0.7170997568611661
-0.798882306395498
0.08178254954300965
-0.7950536070496544
-0.167873438356955
0.2099655255184766
-0.04209208712980912
0.07721233545160934
-0.1891662471446315
-0.07073178608568537
0.2598980335784454
0.04647211216613695
0.00622326649169632
0.6629991062964333
-0.6721531462788972
0.7925130252204567
0.06717995989173656
-0.3028829358943746
-0.4789752742931098
0.7818582101878967
0.1300638818299808
-0.1300638822805499
0.2473895047302084
0.4465810100748496
0.5950983233057903
-1.041679333382488
-0.2021550884784217
-0.5616391963902405
0.7637942848681296
0.04647672756702865
0.184610465291399
0.3682186663099873
-0.2476425849871466
0.9505383659254741
-0.50395735666388
0.6591150805269949
0.9926292360207236
-0.3975309148630463
0.2269660666440951
1.036182073503287
0.8660728302353549
0.1908951490725757
0.6810760888764487
-0.908237772418907
0.3344451744376126
-0.2703545956276386
0.2466017155166374
0.02375287993051998
0.7822544665583716
-0.01024828184195528
-0.7720061847165234
-0.864913328711544
0.87020397480778
0.5481473201440281
-0.8649133259884975
-0.8660728302288908
0.8702039784164108
-0.0285239425404273
0.8121407873541705
-0.0196277663142106
-0.837981947170611
0.7818146666257951
0.05616728054287926
0.5013946208561024
0.5351851051623436
-1.03657972602089
0.4556981664283433
0.494840197102032
0.5341493235379823
0.4499204458088346
-0.9840697693438673
0.4963773163629475
0.4962519206315887
0.7818146681581849
-0.4736790018766972
-0.4413855156848555
-0.5466892701288065
-0.4952057563657333
-0.1108289729872109
0.007293118405743648
-0.007293118020175902
0.493321665099153
0.4970157080857598
-0.9922214644528573
0.5250688262800214
-0.2511055429997146
-0.8925531497847364
0.3497628218579223
-0.6227379535414461
0.3834462037612773
0.005500114620012909
-0.8178409171888036
0.8123408025690495
0.428312979051279
-0.01854368674171791
0.8007981565628116
-0.9309230289643251
-0.8448337611484358
0.0538052886126805
0.7910284725417681
0.6422595339114044
-0.5333562336561499
-0.1089033002525058
0.645968859364638
-0.7188458479313106
0.8680256398832018
-0.8152518649698984
-0.05277377491297348
-0.0103794459628883
-0.809747323565979
-0.1050615546456364
0.7014914968795785
-0.5964299422352798
-0.8435467051143126
0.8331672563506509
-0.7708007660807612
0.727798327723107
0.04300243835807663
-0.8296172462477031
0.0342509858487799
0.7953662603987464
0.05833977958421829
0.07172410153139901
0.4325820743698248
0.06289738572810025
-0.847377602368561
0.784480216639951
-0.599414487381481
0.5664893973637859
0.905976853108185
0.06889349249915462
-0.9748703456101417
0.06114309254640638
-0.04867315456863945
0.3176756686712671
-0.3768004232087102
0.0627471678413862
0.8364908365386332
-0.8309907174738849
-0.7624372964948191
-0.8328538254207537
0.02310650106979245
-0.1578319844463074
-0.8356439939471398
0.02039212855186676
0.6734205985526108
0.049220700039492
0.03066910903477206
0.6115904294978854
-0.788496236240331
0.8227472148715828
0.6735163632282768
-0.8363845983248966
-0.7746532103224888
0.03748757450379384
-0.0341573191456156
0.81314586646874
-0.7789885473231528
-0.02330318323448377
-0.7965946150869098
0.5528505394894979
0.1642492242082418
-0.02464962829992467
0.8254477879090265
0.8869725458209373
0.8567176574383193
-0.8363255269049883
0.1501031545383952
-0.1501031542697867
-0.1174501905029725
-0.5785747220264262
0.04521849297277084
0.24070178483341
0.04710198964575234
0.2950285849579291
0.8021446038995469
0.0199695360146614
0.0265025792822053
0.6550165390264964
0.3449834609772147
0.7811548365470006
-0.6791726720283143
-0.7316536839102624
-0.7892368269150374
-0.8493522903218149
0.8493522903188306
-0.1619300472330541
-0.1580375022972455
0.6029877277393604
-0.8131842091913563
0.2101964814540355
-0.4660726567125037
-0.5089972793426718
0.2654136146505406
-0.9295748162188253
-0.8298922993393858
0.777118526251682
-0.7949995145997609
0.8181060111746928
0.6316905114250668
0.1295523850421491
-0.7612428964523829
-0.746234390988201
-0.1336808499847666
0.7209992255247478
-0.5873183755431655
0.02774769711812249
-0.01304555002630414
0.02982434991584671
-0.01677879998932305
-0.4754056548078854
-0.1031690673784739
0.868401341173037
0.6565275824576968
-0.2123706134806091
-0.4441569689728849
0.5476242890420904
0.658973120197153
-0.4648661356276789
0.0001104905387875462
-0.287425319100656
0.01193723108238739
0.686206319469768
-0.6981435505518615
-0.2978843044141052
-0.05853848656143935
0.07092388079762155
-0.8917351857173642
0.1197290041882452
-0.6836318247788444
0.04303857938134194
0.6465130772518245
-0.6895516566286649
-0.7596040613952508
0.07597223661489433
0.5852966872803878
-0.6438351738429277
0.1218940449649401
-0.3110602890945807
-0.7508370015567752
0.00460261056847215
0.3705693189211632
0.5772763363478282
-0.01821116856990647
0.01576365920807622
-0.01576365941969998
-0.01760969490006949
-0.05939994200575411
-0.2109546642498598
0.1368317982610611
-0.1168622744110011
-0.7016163011713573
0.2563280113389318
0.690197297688898
-0.6910845339352686
0.0008872362466742042
-0.5771055419194129
0.6201441253408256
0.6442614764883338
-0.05896478727759121
-0.6371283530154281
-0.1224757089070821
-1.012761928190375
0.00732283059616793
0.142780315010483
-0.6896790678850403
-0.7421898997340257
-0.7623297215023941
0.3693486370800054
-0.3543318851230919
0.3731577483271054
-0.01882586318684934
-0.6464959338265851
-0.04318313405938948
0.502250242557793
0.7200134628159806
-0.1994988134619382
0.1430888614309945
0.8871325706897213
0.4458362918930563
0.1186591700959905
-0.5644954619868342
-0.6592256028609237
0.01272967152640741
-0.01037130254492994
-0.002674253988494884
0.6425277929038694
-0.7726186950966667
-0.03346257392838138
0.03346257299993868
-0.5936837966073045
0.6510756267219437
-0.0573918301163303
-0.6285564903245315
-0.1163608615536803
-0.6328387229227759
0.02628028536565236
0.5530643123853696
-0.1213967167831367
-0.7665195712591891
-0.5404419933509944
0.563126548211718
-0.02268455485579681
0.6057283270030243
-0.6048410840727569
0.3243036951044415
0.2112783201133524
-0.5355820152231059
-0.09966210211027007
-0.6042077193607897
-0.08534393119745834
-0.1478474927334816
-0.5141617041551579
0.4027528111039001
-0.4949454709410558
0.121543047701992
0.6842572505722799
-0.8058002982745476
0.6930307422088439
-0.279305219734793
-0.07502665971863534
0.06881890038058233
-0.582980604578999
0.5482803014172316
-0.0431161364621572
-0.5051641649498185
-0.3090709014508773
0.3018094287715958
0.007261472575373556
0.4327593049429209
0.09230951964248885
0.04005375890349457
-0.3145898033110397
0.1577103062538932
0.156879497083006
0.3978186563192015
0.05629891741026159
-0.2779008496578913
-0.4666375697768504
0.4980902049421412
-0.03145263514884342
0.7788440865481411
-0.6151042216097675
-0.01345226871218509
0.4945838782141989
0.2754147448743788
-0.4877853537287527
0.7505954713164081
-0.7505954713100537
-0.30647224634461
-0.7508309537339806
-0.3059184222791392
-0.7508309542505435
-0.6055217072225942
-0.8442833995165613
0.1772808156610759
-0.5698857269852043
0.7929862553193412
0.002155415170638496
0.1011148856352935
0.4761614526488575
0.08785876266400024
0.1886136061366729
-0.04056817146185313
-0.1480454345159292
-0.006759178430303546
0.5906625306241708
-0.8728571130269714
0.3938818351821822
0.03803395344818248
-0.2094039811071035
0.1713700275323728
-0.646283160074766
-0.1247969033326559
-0.4522361405671
0.5708953167838003
-0.5049148846678962
-0.3967844309334342
-0.1861961719276785
-0.2380316930658823
-0.1125849033840745
0.112584903342959
0.1128537063578634
0.09711182176410688
0.1959364396352611
0.4294566704672828
-0.5338741991028985
0.08163806058746187
0.2846356611450548
0.4653547774123849
0.5346452225945232
0.606543154893041
-0.03117625594760613
-0.06909640978450346
0.1002726664430116
-0.2458927501261916
-0.5206268211069707
-0.4994895878450307
0.11580086908564
-0.1272680990844179
0.01146722995840859
-0.1015246765284663
-0.3833100546065624
-0.0294376169788016
0.5825019293278584
-0.5079368530460481
-0.1383463070282201
-0.2984141447579179
0.2583805595286304
0.1123396415372015
-0.6796205696157145
-0.2024982193080505
-0.2503274351514927
0.0449421048406578
-0.3841380100444534
0.2711286149606364
0.1130093949853828
-0.09083362112726198
0.3150665385745339
-0.8825924877571513
-0.4555833161600727
0.5757427538700848
-0.7694135806540037
0.6697514785459358
0.302100515785604
-0.1541680902497538
0.2251148197793785
-0.07094672929365747
0.0153030478658272
-0.5916920442499471
0.02610319178030518
0.5655888524681717
-0.89729428827771
0.5331797847340528
-0.6506299752792249
-0.09573858866889975
0.1217472740990225
-0.1217472742308464
-0.3144793138648007
0.3095128054702055
0.008162862656199621
-0.01504499605883616
-0.01613128513248676
0.5051010246744092
0.6477975022152397
-0.722367418809032
0.009718925548560815
0.01709911813234856
-0.001335449375979351
-0.03602391520844848
0.03602391433633785
-0.3773542859144468
0.469663805371425
0.01724670073421454
-0.01724670071708051
-0.7544159585131819
-0.0882201915235426
0.1465599899955567
-0.4259757883366085
0.5076138487408408
0.4276980326804267
-0.4850898546358902
0.1508878352525275
-0.1508878349718568
0.009786840561194412
0.1578457425321786
-0.06571697039716841
-0.8818880741199641
0.4899712211470276
-0.3961801381488787
0.07172409488071953
0.5212156798509163
0.02791664141972281
-0.5491323212809944
-0.6191995439705017
0.1112626908811909
-0.3229319128577237
0.01200787464041239
0.3109240381859341
-0.1577957992626212
-0.04170302631826205
-0.5557091197335061
-0.03598292521160331
0.1427803151282506
-0.07373728266556749
0.04027472512292009
0.1043466889223244
-0.104346689569886
-0.4731446904111772
0.4416920568148257
-0.4223540857438695
0.1526072315268169
0.6285476050220915
-0.08833400531692148
0.01406066662502418
-0.01406066700315916
0.5321347461925223
-0.06803013813994525
-0.008316599176287945
0.02103304078160944
0.0357001789152338
0.6040282951620632
-0.6720584332996737
-0.5910458043374254
0.5775935354615932
-0.08666733587978449
0.3037486633502759
0.6996205879915111
-0.01760969505764744
-0.2328490622076841
0.08511998143341537
-0.7189290194985395
0.4777382541781914
-0.344028140351994
-0.09798386313253833
-0.002858578787075726
-0.00487798478280556
0.06773541240204842
0.3841630523099445
-0.1101011554868766
-0.3950630117058007
0.6273905897141981
0.02873080775448159
-0.0006569255946955674
0.000656925511752977
-0.2711423792980526
-0.04368801923141539
-0.5543060610173105
0.5564614761925948
-0.2248998929945302
0.4725235031360615
-0.149555492665702
0.7415103383037773
0.6666347697642395
-0.07373728261415255
-0.6251494767212885
0.5650842081102931
0.294758366898253
-0.2596916870549335
-0.03506667990005544
0.4867599141700213
0.09852133751831951
-0.02977692922968296
0.2028144668964917
-0.1730375377440924
0.1341236293665535
-0.134123629505229
-0.8154695266740083
0.0007846824187360303
-0.120280650756641
0.1413136915330013
-0.1325258152176781
0.1325258151788657
0.01709910575296667
-0.003549019958547555
0.6783484014334654
0.05754050948374882
-0.3200285884228692
-0.06328146610642943
-0.4770080832303805
-0.003655774903249836
-0.152487477887086
0.1524874780876184
0.1100595042178834
0.1440476482655993
-0.1440476480970304
0.1429524532082433
-0.1429524530657234
-0.3216478896616928
-0.1053461834724339
0.2239311381856187
0.1001048481944237
0.03121919547879204
-0.7795974243969183
-0.2096169006191511
0.1713125157476472
0.02209478718700769
-0.2622439581067962
0.126961917276168
-0.1269619172356262
-0.4209547597067063
-0.07399070787131758
0.2349198857019147
0.003626469275089414
0.03060940718344756
-0.5325724834623411
0.5610964259979614
-0.1116064645522723
0.2216659686464259
-0.03646779509014932
0.1943135197016996
0.0068401920095413
-0.1837517503569142
0.1769115583631096
-0.08157899240284081
-0.2294812978205071
-0.1451997343260243
0.1451997343800804
0.0731647873902692
-0.07316478737047136
-0.01858282318004696
-0.109207645084609
0.1277904682503884
0.2414553272062482
-0.1824821182712636
0.007059882171764465
-0.008395309660792175
-0.1056339742694246
0.547326032602369
-0.03942011426465902
0.4019798798102541
-0.1057392785781108
0.07794669606499929
-0.1557680328163754
0.1557680330961233
-0.624526783208061
0.3001815116629145
-0.07321544518618213
-0.2301291533094437
0.003416628868616232
-0.1537496725900887
0.1843590796828839
0.1449692663007135
0.1149287751607695
0.1401680760277181
-0.1044678973489101
0.0740537165192988
0.04174715139501455
0.06573133354947247
0.1055811816725279
-0.07965283410236917
0.2227416982799148
0.03280561354580507
-0.19651510967749
-0.1536870628852459
0.09957300543445427
0.05411405728373584
0.01775605334789401
-0.07700847880187936
0.03733633890220453
-0.03733633886088025
0.04906479309473831
-0.05692799676607128
0.05692799675361073
-0.2190901113249738
-0.1185684077420118
0.01645653377878121
-0.0990007679982078
0.008828822283753326
0.1101423835958565
-0.1101423836213791
0.2579786696223662
-0.2574140983905827
0.1758351077487616
-0.03431152031613424
-0.2231025760690965
-0.01619128337109648
0.01619128337500271
0.3736937170134352
0.2790715525860659
-0.5274451626513559
-0.0941536046567106
-0.0331144959796963
0.5263009490375485
0.2049875189756675
-0.1179202913415878
-0.3377728728380546
0.07405723582444146
-0.1467565591587481
0.185332908640602
-0.03857634955293034
-0.06839522479695116
0.06839522475542981
0.7736778238216877
-0.5536029023986526
0.03158555260990481
-0.01382949975245971
-0.01994091247153983
-0.2828344006896306
-0.01708572771735883
-0.01267391085846995
-0.1281191093051411
-0.5628499987955355
0.5509987928422673
-0.5702015784746183
-0.007287744055419849
0.08580546913208509
-0.003280549389716574
0.01281557159265644
-0.1666974669446289
-0.3348681947917738
0.2358674268329533
-0.05441128728476181
0.03582845688597434
0.1289620206687863
0.1728474081319485
0.2913728100868147
0.2716437896207748
-0.2749243390443717
-0.1134123489331251
-0.1538723798311985
-0.2181212709112519
0.07555634870616719
-0.009825018270608693
0.211243913902183
-0.1984283422913159
-0.0849813500118989
0.1590350698181271
-0.3589232590052635
0.2073490546730858
-0.1985202322857958
0.08416115860937938
-0.4792241698335241
0.1726590006765162
0.1710954017293767
-0.2560767500976147
0.06315960697693122
-0.1935760038010222
0.1764902760093119
0.01681952741772587
0.1422155432362114
-0.03968129988534502
0.06467103390906052
0.467463712307495
0.02114506050088638
-0.1710064051823766
0.1071945262580694
0.1364357086375275
-0.2566976164551001
-0.22654680353038
0.5500911914469968
0.1565927680761482
0.07832711428330219
0.07462397024859578
-0.02965081153002794
-0.2065755021828111
0.1715088294116137
-0.03343797942886429
0.1687878912744952
-0.1760756353761707
-0.1032709921322033
0.02319024152877004
-0.1472607490414609
-0.05136045244060607
0.1194706900157511
0.2731888978441803
-0.03567235708029066
-0.01226197063480399
-0.239836182972358
-0.1602714315569199
0.2338425707738231
0.1799124632188932
0.1202690418447515
0.01272367793870629
0.0883703484241798
0.05784376037386163
0.4472572643009151
0.08691967749371057
0.09919725029059677
0.0432629931817918
0.07279579192159928
-0.1160587850695228
-0.248373606727112
-0.192636136235585
-0.03046643893801822
-0.2060352708673664
0.2703026221804553
)
;

boundaryField
{
    FrontBack
    {
        type            empty;
    }
    Top
    {
        type            calculated;
        value           uniform 0;
    }
    In
    {
        type            calculated;
        value           uniform -1;
    }
    Bottom
    {
        type            calculated;
        value           uniform 0;
    }
    Out
    {
        type            calculated;
        value           nonuniform List<scalar> 10(0.9898474861151584 0.9750736194738278 0.988074785812303 0.9912175126794145 0.9851055444515582 0.9914576768947029 0.9903373739511853 0.975069936061054 1.057067715372011 1.056749376021465);
    }
    circle
    {
        type            calculated;
        value           uniform 0;
    }
}


// ************************************************************************* //
