/*--------------------------------*- C++ -*----------------------------------*\
| =========                 |                                                 |
| \\      /  F ield         | OpenFOAM: The Open Source CFD Toolbox           |
|  \\    /   O peration     | Version:  2412                                  |
|   \\  /    A nd           | Website:  www.openfoam.com                      |
|    \\/     M anipulation  |                                                 |
\*---------------------------------------------------------------------------*/
FoamFile
{
    version     2.0;
    format      ascii;
    arch        "LSB;label=32;scalar=64";
    class       surfaceScalarField;
    location    "1808";
    object      phi;
}
// * * * * * * * * * * * * * * * * * * * * * * * * * * * * * * * * * * * * * //

dimensions      [0 3 -1 0 0 0 0];

oriented        oriented;

internalField   nonuniform List<scalar> 
1171
(
-0.9278964221705294
0.9278964221728171
0.7873411986033003
-1.099073070066885
0.3117318716199448
-0.1912092829327416
-0.7672871330298496
0.9584964158259112
0.07210357525877145
-0.1177542189965915
-0.2122313381357353
0.3299855565633367
-0.7873411990636622
0.06931466090517126
0.718026538163106
0.8108700193214997
-0.1777903059480793
-0.6330797134704036
0.8739477713878492
-1.043898044263256
0.169950272885656
-0.2851059880823498
-0.09832895050326711
0.383434938684922
-0.03652280506738272
0.5487293237762803
-0.5122065187269642
-0.5088687170188813
0.8288850337363027
-0.3200163165286319
-0.4028602118302291
1.045569597724177
-0.1716218291849516
0.3932012448189017
0.0507706742095581
-0.4439719198085087
1.046071214589967
-0.0005016177084491051
0.4455650811500463
-0.05236381276452207
1.056521460311594
-0.01045024483423798
0.5804107902651238
-0.7716200731941082
-0.7240349297550197
0.5566746559703285
0.1673602737434895
0.2141092472466097
-0.7229779681146221
0.5496966405424197
-0.9224348884519651
0.3727382476173045
-1.094229161905272
0.6866211800063692
0.4076079819047894
-0.5955216446316586
0.5589988397840207
0.01708539882247112
-0.2555950929392711
0.2385096941270095
-0.02273494120717159
-0.5248945636604858
0.5476295038739378
0.4001052052704683
-0.4984341554167775
-0.9189173824551576
0.9416970876822848
-0.02277970518480122
1.067872678129701
-0.01135121735733331
0.9349981291467461
-1.116800213877402
0.1818020846797506
1.067389861818459
0.0004828184153937835
-0.6643061940891209
-0.05972873773435936
1.262077653494092
-0.8644301351557323
-0.3976475183563128
0.1484724843285429
-0.1099573167653685
-0.3252049189775516
0.4351622358625127
-0.2855057688239091
0.1920424721320651
0.09346329673726582
-0.5836010376424939
-0.5154720327748797
1.014135501385013
-0.0791373708635921
0.009868923182752978
0.8254997450013696
-0.8353686681363439
0.5716829817369181
0.6903946703838548
0.4387720020456358
-0.03115788176113184
0.4312630865734283
-0.8080402016476008
-0.1025827039633481
0.9106229055544747
0.5022751003607807
0.2541325104774693
-0.7564076108032745
0.005512345107730324
0.5309356960276982
-0.5364480417723456
-0.4900199952074033
-0.60420916129719
-0.4227970121819121
-0.69400320155694
-0.02745373958838841
0.2708736742328866
-0.2434199342683902
-0.9248699667327951
-0.005162865189239535
0.9300328319654139
0.3081823022413914
0.07525263690196014
0.7616379586488766
0.04923206754578095
-0.5329028104398372
-0.06261882877528577
0.04606016614996172
-0.8541003659427328
0.07706859124985929
0.8624700712325635
-0.9395386624434834
-0.3470007025484671
-0.04058780895961243
0.3875885118496818
-0.6821981212155019
-0.2426718401433136
-0.6339697774651655
0.7110383705237227
0.6134789465930592
0.2154060849733446
-0.5433643962615885
0.9458257025827485
-0.7789959151721767
-0.1668297873517418
0.01202717539056552
-0.004902259376523227
-0.00712491609030164
-0.4033966289048256
-0.09503752505726679
-0.2416235826578411
0.8551025303402119
0.04867481465109414
0.3335031138704584
-0.3821779283083533
-0.4617008077792596
0.9639759037460127
0.6803938967340298
-0.782976597580663
0.3183783050525995
-0.01468929452535465
-0.303689009321476
0.9307015455993405
-0.9307015455885747
-0.7817171246081077
0.1114568783157287
-0.3236882148205227
-0.7499522131953222
0.7598211411741166
-0.09118069031000256
-0.1430355773581705
0.2342162681251833
0.8648640767670571
-0.03936432745447472
1.05461552089876
-0.800483016841197
0.1867495047991478
-0.3164254464339118
0.1296759413793387
0.8583755669496311
-0.09673761085172485
-0.6113388845970428
-0.0392960992907832
0.6506349839173048
0.1234579023628555
-0.2303651811184458
0.1069072784869347
0.8055264544318883
-0.9833167543833473
-0.4341246173720458
0.3290279909685154
0.1050966259636681
0.5336001991320397
-0.5563351287789202
1.021991102989784
-0.4562472736604804
-0.5657438292878154
0.5991940973919812
-0.7192714530127209
0.06644406250208772
0.6528273905486788
0.1019679479057171
0.5696946144750553
0.05500922540359391
-0.624703839948794
0.1949980617927425
-0.08354117937324551
-0.4920659824819715
0.1450652871200233
0.05028619276466095
-0.8864563518052248
0.836170159004841
-0.4741238757815081
-0.7131701647384016
0.04886397452083179
0.4368381681640135
-0.005575076258446611
0.3001122164296707
-0.8553057470074595
0.5551935305842619
0.4157603617142638
0.5842396382237971
0.5606032396867611
-0.5145430717974199
-0.3670531205413609
0.03979401528701301
0.3272591067783961
0.6812566258864546
0.2494449177827144
-0.5676792314517879
0.5731915809508428
0.1116332385460693
0.8748411143939806
0.0102657262537932
-0.6216046137064087
-0.7490779530740462
0.7993641443754211
0.5303985148683298
0.07076618705407178
0.3004331664231826
-0.3711993536329847
-0.1674791774492179
0.4452853518333841
0.08565034306342451
0.8737690293843309
-0.8039670984008244
-0.06980193097466282
0.6354390424326507
0.3103866583110352
-0.4308503706465012
0.5740847730033679
-0.5033185884605416
0.4170392168679904
0.1326574312478059
-0.04675907817664181
-0.5908706524840794
-0.1394782490772813
0.730348901522471
-0.1497053642100445
-0.7809961810089996
-0.611049691687869
0.3601455759840952
0.2509041161066907
0.6219911051806051
-0.6117253797978082
0.2388048740733081
1.01169452863933
0.04292099057415734
-0.7490779511742954
0.2254105795139222
-0.2133834004024805
0.6803938960536435
0.8018741513188736
-0.8018741512645271
0.8375923859200137
-0.8330820279567099
-0.00451035797310202
-0.4453350771510513
0.8610954461444882
-0.1473749420835704
-0.3446910415590367
0.7347717282795967
-0.6685786033887534
-0.06619312487980661
-0.7362254410503296
0.1453547898444287
0.1391624642527221
-0.6720652772617193
0.7829765976450719
-0.9504557750813368
-0.3673430776572635
0.2864286094077906
0.08091447025938484
0.1456967210553841
-1.010052650909075
0.8643559298409547
0.4806985389942949
-0.04192653692137702
-0.3080647435455155
0.5862230632878571
-0.2781583198152952
-0.7385680051454265
0.8842647228230962
-0.1570048117908693
0.7321268773092755
-0.8376264243787693
0.1054995472419874
0.9772713409188729
-0.5393534296536744
-0.4379179111961484
0.7551150728695499
-0.06492995574511363
-0.03520789886634791
0.1850335978513963
-0.1498256992104475
-0.7757889946062374
-0.8391365497535931
0.07184941451725967
-0.7499522129763739
0.5138868668732446
-0.5544746675853693
0.09925228085855482
0.7160270903149644
-0.8152793712077521
0.7535883054166207
0.1743081342283354
0.5029299117055758
0.4970700883031894
-0.05481190931934853
-0.6105602976201381
0.6653722062860101
0.8796381540045554
-0.005869122303776889
-0.7551150728770388
0.7993641410207143
0.1916671176857123
-0.4472622094429018
0.01257573838045483
0.003386897984507161
-0.01596263774321141
0.5891265282939784
-0.4373999567747909
-0.1517265718233213
0.718026538250062
0.01118148180020254
-0.107009671722657
0.4387229731441614
0.1504035531466113
-0.01541573862783657
-0.007656129245679461
0.02307186810380759
-0.03175088605440964
-0.00345702204487094
0.2459099387738335
-0.2605992214963415
-0.9588789628375071
0.001641874058805969
-0.1595148218188013
-0.1214331383135961
0.09466416850269817
0.7223523188992815
0.7289339123823326
-0.1446942678671845
0.6718380824629941
-0.572585803963254
-0.2119488388709285
0.3986983435413963
0.6956470184509027
0.02237951981730289
0.2418211619517292
-1.074903194147183
-0.9504557758185882
0.3026072223173018
0.759821141112072
-0.2093572789214874
0.06632170740525703
-0.7239941911876019
0.9103636944173247
-0.186369503176215
0.4158238615541099
-0.02823534121270231
0.7712402017080336
0.2807285427116082
0.3767333705302078
0.06883171578711768
-0.6587152257811135
0.6587152257852066
0.2148073921328273
0.6958155143038196
-0.05637848642472605
0.3898816012722472
0.3787837445751675
-0.01275873186447155
0.02533443568815876
0.4483093656981941
0.03238917473786915
-0.7385680054082974
0.5339678299195073
0.2008038930892449
0.3000049141350732
-0.1149713144393655
-0.6956470164275238
0.1795421202096981
0.7308215715700994
-0.01026108665483245
-0.813584386822146
0.8238454734645897
0.696423073447797
-0.7919446412051934
0.09552156769967789
-0.75358830938304
-0.1510477817552008
0.2123240629372293
-0.06127628105233122
0.07756511892196041
-0.1781621659806095
-0.1132367897423551
0.2913989548791113
-0.005902439486576929
-0.009513312496107981
0.7064361982494651
-0.7166972761832212
0.8871307294256588
0.07136568497242035
-0.3142601212440342
-0.5214841440855474
0.8357442652570218
0.1039358223806742
-0.1039358237818483
0.3262226347904917
0.4739835695125206
0.6143473433606581
-1.088330912803362
-0.1940773210026432
-0.5855679517408205
0.7796452727302773
0.01351419957014236
0.22070207835555
0.3761563690386726
-0.2526984675754084
1.016139309145759
-0.5421557407913005
0.6687330229694205
0.9930297682626227
-0.3786824270150971
0.2287814238762316
0.8842647209655954
0.7126428913166023
0.2139190076714938
0.7277780835723962
-0.7809961824980244
0.3412847761879669
-0.2828041020568944
0.258549419894089
0.02425468403601429
0.8484969369304655
-0.001361559305043609
-0.8471353777253835
-0.7021926491976832
0.7026754693926949
0.5546649260576131
-0.702192647469864
-0.7126428913014345
0.702675470938565
-0.03407903443584501
0.9095248288127579
-0.02239409726019642
-0.6812566347694421
0.6122618662263226
0.06899476855428148
0.538495707041483
0.5378933745569857
-1.076389081622539
0.4870566253777308
0.5290826825174392
0.5473070390270769
0.4573198544840988
-1.004626893518108
0.4922108233258782
0.5008189437662091
0.6122618728180059
-0.5256308207886425
-0.466388907714136
-0.5564861567043216
-0.5137876690517454
-0.1215993382443896
-0.01271583704665685
0.01271583728925483
0.5108824349018488
0.5244047622286405
-1.038192431285363
0.5719084266334861
-0.2714752646600028
-0.8834882248714987
0.344134794883678
-0.6329456394413256
0.3902738003573163
0.0009623526259503211
-0.8254109880684165
0.8244486355291579
0.4208691794111746
-0.0240101491549487
0.8725070869263013
-0.9482298998942685
-0.8329951041580886
0.05494767624825263
0.7780474279994806
0.5616679209072325
-0.4395005111037902
-0.1221674099392924
0.6502766228529246
-0.729413995047357
0.88830987018075
-0.8274076058690335
-0.06090226420383269
-0.0143935855961832
-0.7895735132038688
-0.1110252834327277
0.7123747135581286
-0.6013494301349013
-0.9404696373449253
0.9260760548738451
-0.727037449712546
0.6890347060609354
0.03800274369119748
-0.8054224778432005
0.03152105503300793
0.7739014228350471
0.06197124821975482
0.04196457028519664
0.432769665697968
0.05992002412534114
-0.8509861982406451
0.7910661741187841
-0.6462035677425626
0.5913916620065263
0.8882001921064446
0.07336752010258558
-0.961567712134605
0.05520509579260936
-0.05014190988375593
0.3774010282677631
-0.3819875403173599
0.06556209245921488
0.8408072166152153
-0.8398448616374492
-0.7340567850988959
-0.8163241485984974
0.02675063808843614
-0.1652749521819653
-0.8494394153290344
0.02203181169898591
0.6215379006580279
0.05030018049888602
0.02643433186365373
0.535233598506281
-0.8142874022284777
0.8458084629781041
0.5657438235096395
-0.8494211351322938
-0.8671021117587104
0.04242271889288378
-0.02682734078157087
0.834731220373355
-0.8079038795558247
-0.02499077800756691
-0.7608841237123589
0.5442898394021211
0.152133239070097
-0.02044382399334718
0.892950911988685
0.9810237385074886
0.862337412038333
-0.8403055988403313
0.1479635757605438
-0.1479635757540252
-0.1176121479519038
-0.4675463238291297
0.02804581946167
0.270544688102943
0.03206253432263246
0.3879148487706403
0.8679601358462321
0.009524982759309301
-0.01542743264209105
0.6585825850642512
0.3414174149359032
0.7836584441810434
-0.5836010344393763
-0.7781035003922008
-0.8092654350540601
-0.679895771218367
0.6798957712316044
-0.1682186941196157
-0.1554695319771949
0.6023585719039704
-0.8115307093291422
0.2091721374394101
-0.4940848418777495
-0.5688762161398757
0.2779773449114962
-0.9719805436799898
-0.8993393185310682
0.838437056191481
-0.8144292849274647
0.8411799275246875
0.6485825435213711
0.1341985412530133
-0.7827810847906895
-0.7712626899067812
-0.1464636933466366
0.7249965078356159
-0.5785328145413923
0.03137918119199511
-0.01167391419693446
0.01583759028438017
-0.004163675968700955
-0.3529949269742293
-0.1145513878320358
0.8803359090559203
0.7460288937373124
-0.2435577585541275
-0.5024711355964733
0.6238614913786422
0.6857807367315544
-0.4709733417333031
0.0001158585054621469
-0.2856216220884478
0.01238044477918928
0.7513602939716312
-0.7637407386118646
-0.3233980085044141
-0.07301199386096366
0.07648691819343446
-0.966896509621056
0.1197611334075022
-0.6773321759329852
0.05382593763467414
0.6396471880761893
-0.6934731257351618
-0.7560144130457037
0.07868223713001668
0.5887599792849166
-0.6617719731244909
0.1573839040613908
-0.3355460645395381
-0.7713928143239421
0.0001301243734784986
0.3710754573981269
0.5997306613786529
-0.02564588777898702
0.01888078088455532
-0.01888078029259354
-0.0203719753777408
-0.04908774088343521
-0.233716368919692
0.02788177527327347
-0.01835678127746755
-0.7210926319019648
0.2792961324463939
0.6797491766154107
-0.6888792529362154
0.009130076379372083
-0.5938761775430657
0.6477021142191143
0.654356043315262
-0.06559606735866874
-0.630597001643502
-0.1254174120076767
-1.050570996608917
0.01109441369059671
0.1368691655644966
-0.7087121850399212
-0.7416222835219833
-0.7637658786094084
0.3661183587254838
-0.4058247205848296
0.4604600551295464
-0.05463533398043349
-0.6631280142812715
-0.04558417074877259
0.5009557263751196
0.730686152561973
-0.2360008585083587
0.1145677194288851
0.9667663807456607
0.446827172072222
0.1324124935791932
-0.5792396656951916
-0.6765384039711666
0.01341038836316041
-0.04460237081548586
0.03292846115170652
0.6366086201521787
-0.7760868696882494
-0.001953568442541717
0.001953568741597553
-0.6008842633669527
0.6494779617143762
-0.04859369851891072
-0.6501040673137983
-0.1134892560493703
-0.6715848801796943
0.0609915288108277
0.604380686580167
-0.1375335813322495
-0.81804856763756
-0.5734284188707076
0.5697291772346865
0.003699240650053929
0.6282491780995523
-0.6191191081611438
0.3225589804842273
0.2136827030463122
-0.5362416835163262
-0.1050136617780897
-0.6015563249751991
-0.09191680423351078
-0.1540570913297497
-0.5124368961177106
0.4042019346486582
-0.4992394593964461
0.1266089003240737
0.6786161709648886
-0.8052250712079551
0.599194097395226
-0.3692486292002973
-0.03657611400246751
0.07478964600884173
-0.5872265454957215
0.5513712158652955
-0.04057723187924876
-0.5107939839667349
-0.3132143603123966
0.3058214739977416
0.007392886135063303
0.452913198326006
0.1189952333086109
0.05279972462403783
-0.3166215546508843
0.1576369890230537
0.1589845656145641
0.2354410166762879
-0.01003045077237342
-0.2935885231574142
-0.3102306717991902
0.3492956804549865
-0.03906500956572096
0.7884941565361574
-0.6261564899733342
-0.02394757767333816
0.4992701027056931
0.2844057589813232
-0.5279635172515343
0.5774771094567674
-0.5774771094557243
-0.2897540306703255
-0.5864653125556204
-0.2955777269398758
-0.5864653118987866
-0.5954493485441861
-0.8384875311017841
0.1699089222271822
-0.5981106673921527
0.8211279032068772
-0.003103455791217877
0.1174814859779082
0.4822491774894589
0.09679286178785045
0.1861021469729713
-0.03646600048136929
-0.1496361456670801
-0.02838148237859094
0.5907753779317769
-0.9434328793325134
0.4219487341549583
-0.008589914735407635
0.003444336846679451
0.00514557881365576
-0.6441288727487839
-0.1319865372612974
-0.4682202063366646
0.6006326984799761
-0.5034849567772528
-0.3244850923935703
-0.2627414635354707
-0.271626471851945
-0.1114340101138597
0.1114340097362097
0.1532212037786615
0.05910285397862126
0.1971965683818071
0.4504296212756201
-0.5703946910754073
0.1021744848528368
0.2499594922459146
0.4665154285413577
0.5334845717050214
0.6441913879821856
0.08720020139216907
-0.003311276393446476
-0.08388892139890149
-0.2771363570858869
-0.5409122106554476
-0.5496314854432294
0.1148986720078901
-0.1267205517055357
0.0118218797785887
-0.1054407912033806
-0.3852682744054729
-0.05031521943393221
0.6546958930396733
-0.4992603329878289
-0.144868539728205
-0.3293873375623272
0.2872462102671823
0.1289994726880681
-0.6181699776915784
-0.2046846851596701
-0.2631331140314135
0.002533896518693549
-0.4214811967754153
0.3237203145461731
0.09776088251499297
-0.09472878141917973
0.2917405454020496
-0.8959497037882305
-0.4573435661636676
0.6263144142431454
-0.7732803486544614
0.6682666868817008
0.3397396897933708
-0.1241748569749986
0.2236762147467981
-0.09950135806493071
0.02858301096828414
-0.5862514194313131
0.02872978249093975
0.5575216368257652
-0.9005950683302228
0.5479597489487461
-0.6655718968118547
-0.1049958215011969
0.1098329699912637
-0.1098329709219414
-0.3165056947134907
0.3586297199473709
0.01877131283256828
0.02717038928510037
0.06002981617585832
0.5047526296395698
0.6663821791357644
-0.7361841095912616
0.03055728480246808
0.02025408969987014
-0.001373283130457678
-0.006945674631098997
0.006945674515239693
-0.4122323725495573
0.5312276105263596
0.01581567025053432
-0.01581567019133784
-0.7926083805916998
-0.06101763998685267
0.1229889020569439
-0.4556749441620098
0.5578494336105765
0.4518196800620249
-0.5004133782233062
0.1503410374586017
-0.1503410372151891
0.0349669175115182
-0.009632497220019878
-0.04243104045064505
-0.9751546143130735
0.5372367040422201
-0.4668676988579977
0.04196456861943751
0.5151692842141276
0.03061311390632061
-0.5457823982379543
-0.6165384517718228
0.1172781258156788
-0.328979750076754
0.013559590771302
0.3154201593746981
-0.1557551111644202
-0.08024574722749056
-0.5410532479235243
-0.04519816399426389
0.1368691686825356
-0.04012282761217031
0.03816928013852694
0.08060086997530364
-0.08060086837015666
-0.5259822747773474
0.4869172759461791
-0.4149512631733489
0.1613070999311213
0.6223513442731271
-0.09699048524486743
-0.003043211126977637
0.003043210905396694
0.5329594989922719
-0.08293637560122982
0.005897146481817236
0.02703619598496886
0.0350188999136611
0.686279902872351
-0.769216278591761
-0.6548974341828414
0.630949865343386
-0.1082380019829519
0.3140575118011476
0.7455997673656202
-0.02037197468238322
-0.2655127682972425
0.1505414407015292
-0.7445896047435795
0.4838051984936229
-0.4280163965397458
-0.1013691641665491
0.003236599544057062
-0.0143592184102291
0.02457052134169813
0.4111729198428923
-0.1215226040436507
-0.3892713750101036
0.628902367681201
0.01966150739439924
0.009341074602728545
-0.009341074291015239
-0.3504772973971803
-0.07555265966817172
-0.5602220421569584
0.5571185862443049
-0.2374116502091003
0.4647004659312422
-0.1509219136984115
0.7313326991436048
0.6694576159572652
-0.04012282854621402
-0.6178434416832131
0.5624479442916758
0.283838535629637
-0.2787900021125496
-0.005048532678319936
0.536221092962741
0.09343046246201352
-0.03896303433018586
0.1958698518076485
-0.1569068172103662
0.1195639025798904
-0.1195639017326335
-0.8586302462659818
0.002377468594051911
-0.113655390162467
0.1406915857420488
-0.131457494732796
0.1314574943318798
0.02025406319822157
-0.02341516054691918
0.6698945910028721
0.06092697872510965
-0.3225465919350143
-0.06272168197750001
-0.4712613912634255
-0.04554880026096088
-0.1511846158669849
0.1511846155402003
-0.04892200148114093
0.1437591802287968
-0.1437591797858767
0.136066564065225
-0.1360665637614905
-0.3162221801250449
-0.1146281904659931
0.2258962117849202
0.1031317811529425
0.03478476502265664
-0.8212085474909473
-0.1985512244108101
0.1698444935346775
0.02182262691635412
-0.2640972831772129
0.1262771636305361
-0.1262771632341294
-0.414342647736905
-0.08489681484630869
0.2356155015120538
0.002894196486457922
0.04047804242262978
-0.5444938416848898
0.5785728761189821
-0.03721386767797825
-0.01170813165514274
-0.02492412797799975
0.01529164889739321
0.006581849402570505
-0.1848813910313261
0.1782995417953553
-0.1085072632731267
-0.2270387977344961
-0.1442997791548665
0.1442997787314163
0.07238730160589429
-0.07238730191286126
-0.0189163436747914
-0.108524035531658
0.1274403792302465
0.2348823927103967
-0.1835384190829429
-0.02639363645156253
0.02502035550333599
-0.1301052364818918
0.6170225181826139
-0.03904669853661808
0.4277441966578372
-0.04291162778605703
0.06598348722683503
-0.152904121663666
0.1529041215061807
-0.6368421048082998
0.3079970090957363
-0.07921558456025078
-0.2339888935236758
0.003623712938291924
-0.1207294599737365
0.161207502818093
0.1956695895188819
0.09572937085796997
0.096731523069822
-0.0617126235898011
0.07323218070975093
0.04166649517540293
0.0642146470077796
0.105629847708146
-0.0999652157430575
0.2145329519001766
0.01129463454973599
-0.118321989314774
-0.09987542051374571
0.09593287225306761
0.003942548507856372
0.01091300921158244
-0.02325010978846975
0.03733128908372756
-0.03733128914998708
0.07514039050275265
-0.05540487601759082
0.05540487604666144
-0.2243505486799306
-0.05233851285693716
0.01173925407888031
-0.1030835471817004
0.01650266183751652
0.1088932665827358
-0.1088932663711298
0.2934304824807549
-0.2707785287582231
0.1622712620022108
-0.05096165096079038
-0.2198168756048083
-0.01680582643526073
0.0168058265474652
0.3676637422871178
0.2851636501385072
-0.5281710211974989
-0.09392849610563199
-0.03279205503752723
0.528970840036194
0.2099583016078822
-0.1697833830338784
-0.3797132564132564
0.07653829845089757
-0.1471123079089462
0.1866881580138819
-0.03957585025366521
-0.06722677244916317
0.06722677267325913
0.8221380658237866
-0.5603551869087943
-0.005600685981965302
0.01651369668465387
-0.02002348801606866
-0.2874560690534522
-0.0174820170004694
-0.01284227494942329
-0.1322295159126042
-0.5723424996467362
0.5561582087122086
-0.5690083544827614
-0.006884839571882742
0.1002193215115457
-0.001719503006387041
0.01683755469994141
-0.1671357947315633
-0.3360322876533234
0.232948740558721
-0.05397237299468324
0.03505602359078212
0.1321776600220848
0.1736438143746679
0.3423660481664482
0.2757725295573875
-0.2774920324082725
-0.06170614696863381
-0.1552784088615302
-0.2204293052795543
0.07449783278106976
-0.01028318778106993
0.213394505421108
-0.1965569507883358
-0.08626946326621114
0.1595016471868854
-0.3553256546749869
0.2078684692092836
-0.1913658075726649
0.08959785073774376
-0.4788692246259619
0.1738458860409539
0.1708290842177245
-0.2570985451274255
0.07348140980508272
-0.1949705180742652
0.177488501170442
0.01738388229903184
0.1421177652048001
-0.03958920250593255
0.06560157406506305
0.4673579250744159
0.02052546236498467
-0.086301589784573
0.05389283760786674
0.126332370067479
-0.2600051548677687
-0.2309356636971538
0.5597412272231453
0.1568733766468112
0.0787421228480915
0.07452395651151383
-0.03104086911357629
-0.007027840414538983
0.001979315626359781
-0.03262149115943889
0.1705847551293189
-0.1774695947359279
-0.06173106900351129
0.01941964644233856
-0.1472586745723652
-0.05285275639917832
0.1528018766254102
0.2770352255220271
-0.03997356689553742
0.008263808990530665
-0.2552741331201856
-0.1325842629833643
0.2363911756800369
0.1783392752414462
0.1296577333400481
0.02202870161617733
0.08839367725935322
0.05243648621091026
0.452316143463356
0.01523719792091911
0.09811398280046961
0.04290467790617425
0.07238125341552432
-0.1152859313629289
-0.2430073769357319
-0.2003679732330332
-0.01944889808679509
-0.2018340021777403
0.2747230308818728
)
;

boundaryField
{
    FrontBack
    {
        type            empty;
    }
    Top
    {
        type            calculated;
        value           uniform 0;
    }
    In
    {
        type            calculated;
        value           uniform -1;
    }
    Bottom
    {
        type            calculated;
        value           uniform 0;
    }
    Out
    {
        type            calculated;
        value           nonuniform List<scalar> 10(1.034363663583279 1.064126528859841 1.022875064419448 1.021293505197062 0.9952132305777853 1.01460661265002 1.035287195907285 1.062961058046462 0.8672311450980406 0.8820430394769798);
    }
    circle
    {
        type            calculated;
        value           uniform 0;
    }
}


// ************************************************************************* //
