/*--------------------------------*- C++ -*----------------------------------*\
| =========                 |                                                 |
| \\      /  F ield         | OpenFOAM: The Open Source CFD Toolbox           |
|  \\    /   O peration     | Version:  2412                                  |
|   \\  /    A nd           | Website:  www.openfoam.com                      |
|    \\/     M anipulation  |                                                 |
\*---------------------------------------------------------------------------*/
FoamFile
{
    version     2.0;
    format      ascii;
    arch        "LSB;label=32;scalar=64";
    class       volVectorField;
    location    "1558";
    object      U;
}
// * * * * * * * * * * * * * * * * * * * * * * * * * * * * * * * * * * * * * //

dimensions      [0 1 -1 0 0 0 0];

internalField   nonuniform List<vector> 
808
(
(0.7562489366132662 -0.01749674504314547 0)
(1.03140854455625 -0.0125982981304867 0)
(1.113377933452968 -0.005561803002721181 -1.786332792468902e-20)
(1.085117734628119 0.01261047121112801 0)
(1.364946757548012 0.01603149557540761 -3.907055636642054e-19)
(1.03870777335737 -0.009326920021834611 -7.1814200475531e-20)
(1.013657134083374 -0.02098736496283181 -2.339417456157136e-20)
(1.078837160374499 -0.005332527824524305 8.982461927360727e-21)
(1.254728149987363 -0.01917858840059318 6.362025325245153e-20)
(1.084694663316334 0.01047783644159454 0)
(1.012389630293909 -0.007795989826458486 0)
(1.306719786652581 -0.0522869454881336 -3.55795598236021e-19)
(1.086045692265477 -0.001873008966027964 2.032664404412313e-20)
(0.6751277245747527 0.00639187558041584 0)
(1.283301747832732 -0.1132513869530038 0)
(1.08139622280309 -1.675682434539341e-05 -3.81880950061979e-20)
(1.230056237261194 -0.1439421438264704 -9.726678347602249e-20)
(1.073916546723747 2.588715169873907e-05 3.167148110983113e-20)
(0.9925456336584414 0.004383665465875047 0)
(1.026277232253354 0.009506965077991357 0)
(1.036816541734568 -0.009720374778190589 0)
(0.9874639217837631 0.04434833372673318 0)
(1.051141652896602 -0.005927502697174966 5.543606264946565e-20)
(1.053407879255152 0.009264811096035417 0)
(0.9325128387990242 0.1968472622063216 4.610007039106163e-19)
(1.167157529139346 -0.0850078449232021 0)
(1.186069770032527 -0.01802075937774648 1.588437857510188e-19)
(1.077440465068744 0.009431517551143331 5.19060561216632e-20)
(1.08386074968427 0.002314420732006591 5.048443647194037e-21)
(1.07189073921027 0.03089185429328931 0)
(1.075475366104802 0.002730778587549181 -1.172202162791064e-20)
(1.032948201145712 0.006770803580148389 -1.962139026617542e-19)
(1.059893334565468 0.01482648771718488 -2.387537955070981e-20)
(1.08912192243858 0.005433292604597195 -2.928017768081015e-20)
(1.119989378351593 0.0394700346699135 0)
(0.7551924877098097 -0.1242606320422898 -4.534639444083532e-19)
(0.9546709736628918 -0.005874131031574093 0)
(1.068889990622033 0.02233792576738395 0)
(1.068823781157551 0.007347052353696815 0)
(1.07364479189383 0.00899732473866186 -2.839296943021487e-20)
(1.092094774053211 0.02466585424158068 1.116852613859685e-19)
(1.150739032058918 0.004186014063573654 2.188196746131242e-19)
(1.096003361349646 -0.002332032471213017 0)
(1.01575094110589 -0.008974497617189834 0)
(1.134381420751856 -0.09555105562822612 -1.637719943744377e-19)
(1.044102741069259 -0.01158621404299361 -7.961975446770492e-20)
(1.05822050250711 0.02662392179454983 -2.820066063170612e-20)
(1.231850746539231 -0.1117608767034206 -5.62259267300464e-20)
(1.067676842896828 0.01216273648972283 -4.25549308254695e-20)
(1.257995482246963 0.0187282478770127 0)
(0.9962199906989103 -0.01876868145101962 2.105977437137968e-21)
(1.04461918082166 -0.001816467513503809 0)
(1.087638410333712 -0.002126213504808346 0)
(0.9992071338161368 0.006638245520433474 -1.831321249903748e-20)
(1.250425928554508 0.03492824632653893 -2.322516396239403e-19)
(1.063679668293748 0.01817870996385031 6.138895978082036e-20)
(0.9919453148912334 0.008991526116825811 0)
(1.020767904876321 -0.008258672729264257 2.340055861953201e-20)
(1.107304416817256 5.323496795150333e-05 -1.201218277092671e-19)
(1.061246259858646 0.03098623252711215 0)
(-0.082504986060275 0.009060368617249367 7.1378427585865e-20)
(1.155262479244879 -0.05137197653128958 -1.91964105291872e-19)
(1.00695289906507 -0.007302580594816696 -2.570854481677184e-20)
(1.184677538093146 0.07052337286529216 -1.237351839974515e-19)
(0.9982426663039914 -0.009410210108602646 2.995517556206111e-20)
(1.08426293344968 -0.005517576922308723 0)
(1.246559861542919 0.09998799246482735 0)
(0.6960605559608058 0.003201937565843831 -7.487491989197002e-20)
(0.9895676768974374 -0.01333409560308666 -3.121109476378355e-20)
(1.46184407266626 -0.01720842241194644 4.499315348478083e-19)
(1.060494074020101 0.007591683325278825 -6.792805551908711e-20)
(1.369232457982532 0.09853915836135574 2.919983363670815e-19)
(1.054735819896022 0.006890119211445377 -1.895947392913319e-22)
(1.081233092016453 -0.0138567108963507 -4.496031243157084e-22)
(1.165615702794116 -0.2364586322377938 0)
(1.021737525851644 -0.01454756184687839 0)
(1.017058459384982 0.01764758104980116 -3.136466090663702e-20)
(1.384665349662193 0.348788387613639 4.148817397519134e-19)
(1.097086256962179 -0.0423223998333128 9.340961683885486e-20)
(1.045124976744972 0.209066073678659 2.542526659014742e-19)
(1.126011026252599 -0.06068171369777785 1.150820117529892e-19)
(0.9219976407347574 0.005125618555257182 0)
(0.9754127167298161 0.0185214243353807 0)
(1.004141944991375 -0.04901732357808868 2.66430118937031e-21)
(1.010178534494625 -0.01297650840054179 7.486965155962604e-21)
(1.02977175136495 0.02629311273812744 1.401883409357968e-20)
(1.531298897421951 0.03704988020261284 3.278534127380195e-19)
(1.288497573478504 0.07203782473652622 5.483891627272181e-19)
(1.072309567055125 0.003050497764217539 -9.250311426751671e-20)
(1.199731036014611 -0.09193702010809818 0)
(1.033665830784154 0.001878158647686649 1.348871807997153e-19)
(1.164668860904619 0.02307577232953127 -3.235688124824135e-19)
(1.001424970176997 0.03228899157073652 0)
(0.9996262212945033 0.002037712960130222 0)
(1.044514966114586 1.912401051988787e-05 7.722001875116998e-20)
(1.210493161751049 0.1119492909272832 4.148421616357694e-19)
(1.011061918309726 0.006991903688740756 0)
(1.092603406830315 -0.06990286223223779 -1.050215571133674e-19)
(1.150048533131375 0.03848566324666396 0)
(1.212218607155875 0.0976847480717335 -1.956268647459119e-19)
(1.10807379959796 -0.02866095533122907 -7.649573218953631e-20)
(1.027246389202359 0.0116852016624777 0)
(1.085052513657104 -0.004639407951258124 0)
(1.01891291618514 0.02581616240223053 8.152571265015247e-20)
(1.071387896783623 0.05466893409274649 -9.508487918992888e-21)
(1.103841370213305 -0.004156743546158624 6.231822707757519e-20)
(1.112006585913325 -0.09525677677978046 1.514223470210751e-19)
(0.9622584021947528 0.003876655421344279 0)
(1.06613702834647 0.03112215901480359 3.85973110552e-20)
(1.169341106038577 -0.07605021942625528 2.34605679481178e-19)
(1.051231070144258 0.04556295710860155 -2.92088413612984e-20)
(1.0224930369712 0.06716371021653539 3.748682345350625e-20)
(1.090375650987629 0.02604210398541699 0)
(1.01575804541855 0.01794710340498707 0)
(1.029006440028004 0.009420337348516109 7.90703594496116e-20)
(0.9486987134892477 -0.03377397775302325 0)
(1.052804347400066 -0.00565725368183432 -7.913325435475421e-21)
(1.343233972226263 0.06021937536313855 -1.591433795853763e-19)
(1.080012185944127 -0.01316807303895366 2.596175810363584e-20)
(0.7439482812671878 -0.001740536141156344 0)
(0.5688303294247289 0.1788573531170292 -9.045543810606202e-20)
(0.7061531554458687 -0.002534196954252335 0)
(0.6988573683658602 0.01463274566271078 0)
(1.077627043665743 0.00364952456743242 -6.808823973696723e-22)
(0.9906420315990548 0.0145291730210671 0)
(1.27783073243325 0.1230730293323224 2.477675487172197e-19)
(1.012354835489129 -0.02779996823872657 -7.921419533430498e-21)
(1.045147451586303 0.02152764294205086 1.79051929271011e-21)
(1.058644631612261 -0.01162906295811966 0)
(1.126647125462456 -0.009131524597329948 -4.967230291690995e-20)
(1.264949174711193 0.1417295993877462 -2.278622758948336e-19)
(1.08933589385901 -0.01122220556420484 -8.523216997351723e-20)
(1.069736800045812 0.02665009920939688 -1.107223500736262e-19)
(1.040702804388937 0.04672943523541429 6.882354427868257e-20)
(1.022533502293024 -0.003767444813531383 -3.448122889399611e-20)
(1.060958411142057 0.02350105466107505 6.095249747970527e-21)
(1.130355095531401 -0.002807375704820934 1.073564765105502e-20)
(1.039743485946745 -0.01570581725959034 -4.805366350248192e-22)
(1.087528562402062 0.03474830570742297 0)
(1.028034890516783 0.01352900595900127 0)
(0.7646766136197566 -0.06003173654801797 -1.815644885334972e-19)
(1.030152768863172 -0.001625766023123339 -6.938268065567832e-20)
(1.130285206378359 -0.006438961545399365 -1.291356030868763e-20)
(0.7034346655193425 0.006579576451014808 7.407567587961723e-20)
(1.174774284685162 0.02067145765409845 -1.913125227439818e-19)
(1.132285626205178 0.005780365855070455 5.237794690586218e-21)
(1.128962143801409 -0.0100097800765991 3.482495047869243e-20)
(1.000939332711865 -0.002931055111161587 -7.645715772081171e-20)
(1.101301794559144 -0.0679511702518656 0)
(0.9860900506286021 0.00272953572438078 0)
(1.057894875669 0.007076608991746509 0)
(1.005201569360795 0.1876515330725205 -2.476566908537105e-19)
(0.7792234108324125 0.01241039637325639 0)
(0.8568571384192067 0.1001625138119946 -8.456448254169189e-20)
(0.07317544267659633 0.03858741974451502 -3.016770287043146e-19)
(1.17262088892901 -0.0293528748175877 -2.227798954065293e-20)
(0.6713330355919535 -0.007297336214992585 2.438265980189038e-20)
(1.170921309061886 -0.10139221335449 6.909417198100211e-20)
(1.122578625071925 -0.006199345112043887 -5.896113558566141e-21)
(1.155495947046753 -0.04765527688902869 2.164875025658343e-20)
(0.1078990215412438 -0.223007136062683 0)
(0.2460396167818295 0.08648860833316725 0)
(1.257462622408794 0.1137454324072152 1.940165322281604e-19)
(1.02121356853378 0.01978524745098263 0)
(0.7378401984319022 -0.006281655409550444 0)
(1.075416791114775 -0.01175480443700759 2.702276830881512e-20)
(0.9748370733413341 0.00278964299990426 0)
(1.294040725892966 0.1321064403598603 -1.588175444707682e-19)
(1.057468060706151 0.01117985485807804 0)
(0.9938434057156095 -0.007287983198912929 0)
(1.064999073545527 0.008280705193377924 0)
(1.006161024245508 0.02081292357091408 1.791763785051557e-20)
(0.9357324280820321 0.01621472031770357 1.09430997954509e-20)
(1.177732470071917 -0.1999850651262612 0)
(1.005212736633008 -0.005185242647529469 7.814407479596357e-20)
(1.059121096484263 0.006411941719224505 0)
(0.7746834753680879 -0.003283415351330525 0)
(1.217444744346812 0.02962122422309213 1.673505206840286e-20)
(0.7049533960509027 0.001337776172149203 0)
(1.436889558015978 0.08913868514105017 -5.319119944186583e-20)
(0.994904154332839 -0.006662155642564578 1.698389884362939e-20)
(1.273378762934826 -0.0006731267343319421 -2.928214358189053e-19)
(1.059532608396741 0.008901592657334863 1.391937634207989e-19)
(1.000909950698373 -0.01358645883329822 0)
(1.215901320829111 -0.1432891510246071 2.04064323703089e-19)
(0.7331954873821676 0.01378962681464281 0)
(1.098494100446938 -0.005079828872478906 0)
(1.152115159265256 0.0695201993931709 2.023295729940803e-20)
(1.007077662837445 -0.00673591393176514 -3.015113030075719e-20)
(1.120116850723595 0.05301340116118427 -1.765177026678127e-19)
(0.09579409270257416 -0.0849276554578786 0)
(1.07179684517858 0.03863169084748277 0)
(0.6617463847211367 -0.002924628300549697 -6.586047603108388e-22)
(1.012161383952806 -0.01938171028087632 9.720927394319853e-20)
(1.061364783405859 0.0007382180045373307 0)
(1.075982586589941 -0.1251430952738125 3.717451297762968e-19)
(1.002819098601824 -0.006206913710908861 -3.450109459335931e-21)
(1.002790617142248 -0.005306085426465833 6.981320908158633e-22)
(1.093917272389012 -0.009331564567364021 0)
(1.02065931955473 0.02059326303856352 -6.294247012191745e-20)
(1.106545149134662 -0.00158475465127571 6.680007998513264e-22)
(1.074403673451317 -0.01135729363820409 6.583653833502437e-20)
(1.085808875924746 0.02231692798797153 0)
(1.331843698597696 0.164276377090168 0)
(1.001998939834073 0.000131678212288907 4.414089326808491e-20)
(1.320415494980422 -0.1244919776150608 1.547565245209555e-19)
(0.0477547983864009 -0.1919854516972815 -2.52005075825037e-19)
(1.071290643593316 -0.005482473058884034 0)
(1.116101041040687 -0.002311442299719154 1.204535225102903e-20)
(0.726829271027547 0.01783359036817878 0)
(1.062273626212097 0.006620780474933136 0)
(0.8704572236659709 0.1661986140917011 4.74874770661637e-19)
(1.271988648184514 0.1344321717168988 1.920188336724798e-19)
(0.6543530358105533 -0.003098530837556439 -6.329336896279459e-20)
(1.041098866187588 -0.0009523008992356669 -7.26555841168138e-21)
(1.054751752561713 -0.0002741873236259039 6.627349363157002e-20)
(1.364183006269843 0.1242825456624497 6.790953623720654e-19)
(1.333775980420345 0.2522703734353096 0)
(1.060422193267482 0.001307961085301984 0)
(0.9999391896801051 -0.006706633432345049 1.507272947724149e-20)
(0.9931379096964827 -0.009265148008729239 5.506828517824518e-21)
(1.381602394627111 0.2001419112701346 4.24273227134261e-19)
(0.6817479110018361 0.000507222489268946 9.856811982568642e-20)
(1.005578443921286 -0.002128550926476876 -5.974329656837033e-20)
(1.098196560155502 0.01303781445432936 2.547333291070461e-20)
(0.6694711356925337 0.004991883478041652 0)
(1.066091081413919 -0.01201130057208777 0)
(1.010903313227608 0.1524897502832208 -1.273007760905869e-19)
(1.091103762655264 -0.009068881458769129 -2.45896777536637e-20)
(0.9821185676325841 3.434504798526494e-05 3.280579928201882e-20)
(0.9912107777280125 0.006038272554117972 0)
(0.6382740721479224 -0.001083336205146474 0)
(0.9767862887480082 -0.001170491629138356 0)
(0.6421448994318587 -0.001483098380610107 2.677542755823078e-21)
(1.090485503694056 -0.05607148166616332 1.195414445159014e-19)
(1.113381372005813 -0.001514580358340112 1.206228044675447e-21)
(0.9579136604904086 -0.0008982842217057029 3.906623409080381e-20)
(1.016181581416899 0.01004913140361293 1.701361502294848e-20)
(1.066936926922968 0.0009114134678497992 -2.50208650018579e-21)
(0.6346972888119055 0.008872339424234404 -3.64036225079363e-20)
(1.003955228647556 0.00830618120184101 -8.926223772029516e-22)
(1.035960990641304 0.007595482999118964 5.319774751751436e-21)
(0.9869494449184603 -0.01237738122280489 0)
(0.6099722438476606 -0.0004858293067399465 0)
(1.068678107899813 0.0226013321159921 0)
(1.017013103364735 -0.01608624580906996 1.04487964062175e-20)
(1.02363873374005 -0.009671572040789311 0)
(0.9914192260727945 0.0139261470429369 -9.723274094115719e-21)
(1.010498039048237 0.001036885785938461 0)
(1.1287437943332 -0.000356058474152103 -1.158848989924586e-20)
(0.03929300916602857 -0.1436639931455767 -4.024760501548819e-20)
(1.035988701085666 -0.01792450812188801 -6.439475531057003e-22)
(1.041356059342692 0.004252064722509532 0)
(1.081104648229748 0.06685721972239787 8.451544886043336e-20)
(0.9681715547931056 -0.002434778018024534 3.111792775016919e-20)
(1.020471124049116 0.01676930660228479 -2.362388931574401e-20)
(1.001504518956881 -0.001001558631072321 2.478426633852812e-20)
(1.039994236916182 -0.006779213370953049 0)
(0.6408798275486809 -0.004020419046545719 0)
(1.02579520312852 0.02454539856659067 -7.319152165807277e-20)
(1.084519094053598 -0.005349518323088315 4.836482191202866e-20)
(1.016933741800432 0.00495300502963638 0)
(0.9789838451313964 -0.002496605550162631 -1.954312562403488e-21)
(0.8682473948244354 0.01595609945601385 -9.777458235913284e-21)
(1.01403408319732 0.002622407719460655 -1.004031475623913e-20)
(1.024636717382679 0.005833982207168816 1.849614155203833e-20)
(0.9838747712083965 0.005018735657753019 0)
(1.00298145624693 0.01156713526613645 3.496283260542304e-20)
(1.10924343995811 -0.0002289458892241988 0)
(0.9256041751016066 0.002689791074485743 -3.172606355110963e-20)
(0.9583460614840195 0.002654123478996349 0)
(0.9144004017611017 0.209617393168044 5.147414853160976e-20)
(1.010750837279497 0.06676536198986933 0)
(0.9928373792513037 0.004518865623208025 -2.267635084273183e-20)
(1.058059436433866 -0.05371185718117859 -2.887204932060212e-20)
(0.991877096171015 0.000641193058860123 3.361823179652452e-20)
(1.011158799138747 0.006078593700285926 0)
(0.9780166467702338 0.0003351059629058421 -3.127779216132044e-20)
(1.16990727538779 0.1042108536834193 -3.42213798628602e-19)
(1.070100377307671 -0.2654504552517515 0)
(0.9929832949872684 0.001005767474331798 -2.232297283172217e-20)
(0.9768867588037669 0.002370379238399911 5.03188695184107e-21)
(0.9639726003743267 0.005323138374043921 9.984514886119876e-22)
(0.7459120548049293 -0.001051107099149707 0)
(1.123478505565791 -0.08054951031792527 0)
(1.003844218395338 0.003949870953482418 -2.231878421235958e-20)
(0.9055445732481083 0.0109333494997698 -9.794907592494806e-21)
(0.852526926316604 0.01073158687298913 2.919500996633722e-21)
(1.014246300866742 -0.004571207961493028 0)
(0.9526015450436548 0.008860968377787578 1.43178955383555e-20)
(1.00559034781766 -0.0002580274349020688 -2.30494044069473e-20)
(1.021457527292482 -0.002447194774829993 -2.562125037615218e-20)
(1.114414349920969 -0.001172338877053786 -4.946679015921328e-21)
(1.119675092685616 0.0004962369133354366 0)
(1.014083212603049 -0.01094577598730002 0)
(1.019644280472344 0.001953574211355369 0)
(0.9423210127037532 -0.0008790113048503044 -2.066956260090043e-20)
(1.017856471493847 0.01363669340112649 5.359744665716106e-20)
(1.082994815252747 -0.002946542738356417 -2.235989883633565e-20)
(1.040458849498827 -0.007351449935062699 0)
(1.106685493641727 -0.004504005350995365 1.852569414816077e-21)
(0.9949314399617338 0.002591192219292779 -2.217672679110015e-20)
(0.9863554814762756 0.004970215343967918 0)
(1.011317556207031 0.003293561779255522 4.647696612512241e-20)
(1.367831067795542 -0.3147176006309436 -1.133038724153989e-18)
(1.122608257415858 -0.04316294563339492 -1.083746596466637e-19)
(0.9647470635628687 0.002923783282389429 4.60813656846526e-20)
(0.7700123973118841 0.004337954001586599 -3.082731604409337e-20)
(1.222484692341752 0.05398592003257614 0)
(1.225453292069531 -0.129636570231951 -1.463666527287906e-19)
(1.079078861353216 0.001711656272705989 0)
(1.00817253338856 0.001279019619314277 2.256565971753663e-20)
(-0.1753167093282808 -0.1381536175567663 0)
(0.9939661486367499 -0.004647087469972559 0)
(1.012441433765602 -0.02315039086565449 4.561374697145033e-20)
(0.7063230559892384 -0.0194592697991081 0)
(1.09678668675665 -0.014787992405852 2.124892545295775e-21)
(1.043368839575536 -0.01098985443394669 1.839880227317341e-20)
(0.6331797819109725 0.004125103881495868 0)
(1.449960280867638 -0.1227277183987793 0)
(0.9865467386453743 0.001280857266330154 -1.085855557798341e-20)
(1.069822631407321 -0.01503913739675241 0)
(1.037880101201636 0.0003812877230611012 2.142046482668409e-20)
(1.081298819149832 0.006602456096080152 0)
(1.010686063458319 0.004060188633880938 -1.055236155506012e-21)
(1.005798789318209 0.003014171882037403 0)
(1.01117002644832 -0.008440935697615294 1.641394824651132e-22)
(1.003986938927854 -0.02089439395045809 0)
(1.035314418458038 0.00098088060469645 1.691936915656769e-20)
(-0.1789806900299905 0.02784354687508475 2.651368537211458e-19)
(0.8015109931811988 0.0213460351871025 5.208259696100464e-20)
(1.005664294429141 0.001804699342759954 0)
(1.131113574948228 0.01605743868275942 -1.125070424759713e-20)
(1.121792651136776 0.01411689514639758 8.274261367678944e-21)
(1.054546833374245 -0.01295062793768792 -1.282781429734204e-19)
(0.9987836871777519 0.010353339798899 1.116111677447341e-21)
(1.077551986205126 0.004495070204177297 0)
(1.186857676022407 0.05431318753829129 0)
(0.8354440224013495 -0.07686288683722516 4.588862596929353e-19)
(1.095758509214703 -0.000946597481143745 0)
(1.033294205825249 0.007333406929048389 -7.421966670661012e-21)
(1.042464876259336 0.005162198696819852 6.091929258960853e-21)
(1.055724116637343 -0.06086494640620034 -7.543921438243097e-21)
(1.139561212159929 -0.0005862665361291257 1.670610290588057e-19)
(1.086789820032984 -0.007576820485896293 0)
(0.9944680677840949 0.001350457962802553 0)
(0.9961030158798359 -0.02604103851096284 -2.320857696554284e-21)
(0.9901911582808467 0.003003887534571652 0)
(1.03121942618309 -0.03851302270142071 6.376749093955889e-20)
(1.291572665511133 -0.09218877756970163 0)
(1.043648921010935 -0.005236361221131276 -3.245604123292235e-21)
(0.9861635854259807 0.01703061289134529 -8.536342139513616e-20)
(1.033060909012987 0.04123722710509094 -2.413922000048528e-21)
(-0.08223088486709851 0.1477003080946031 -1.663213339592671e-19)
(-0.06859897651843377 -0.3043525165824547 -1.355496492616865e-19)
(0.8950327956653303 0.1422229319908092 0)
(0.2928985395080922 -0.0306733361548638 -3.328383146704276e-19)
(1.006063113980246 -0.001284891368069321 -1.517965735591183e-20)
(1.063817663449083 0.002686844484945419 -2.1147471640859e-20)
(0.9914205621341877 -0.01900714769486098 2.969205520843777e-20)
(1.021714264313821 -0.03126003635019536 2.563862455574728e-21)
(1.009737846302051 -0.03230968220337646 -6.547674630706673e-20)
(0.9888442573491788 0.004803760925898177 -3.465744164356127e-20)
(0.9928722406715447 0.005034643875246919 0)
(1.025297309812436 -0.002294880355989961 -3.522477991829966e-21)
(1.939126086924498 -0.1557144413153179 1.078518595619461e-18)
(1.043624532494142 -0.0002436884276843704 0)
(0.9953897014500868 0.008559102598241551 1.5569660962668e-20)
(1.003207711888743 -0.0002362040753241528 4.05931140147555e-20)
(1.160153728697589 0.1429478715615861 0)
(0.9973885324476079 -0.0009453793974966403 7.224515729300732e-21)
(0.9490288319588849 -0.0007231832852418605 0)
(1.037835103523385 0.0417729322144368 0)
(1.31094473713081 0.1644177388085504 2.372372941388239e-19)
(1.085014501744512 -0.003464178439328355 2.248122803474675e-20)
(1.017800878091926 0.02990423946537201 4.662921268126775e-20)
(1.087599207452051 -0.005668564634479006 -2.169837314419492e-20)
(1.046787001156515 -0.006602990268966918 -7.731121406747966e-21)
(-0.3845286753085909 -0.05185164798334225 0)
(0.9992662984917424 0.01424728172825393 0)
(0.1079061059752901 0.05567994880168832 -8.831839455877079e-20)
(1.007203195336559 0.02137242963349834 -4.16927295643799e-20)
(0.9966891550914675 -0.01418622486567782 0)
(1.001372458716033 0.005647676616827539 -5.012620620711305e-21)
(1.081783045298877 -0.04244553203329083 0)
(0.9946253803597653 -0.0166500817205501 -7.78652366157342e-21)
(1.098452056426981 -0.06033711792778747 0)
(1.445661871665066 0.1777202114703223 0)
(1.054629534496101 -0.01220434663812117 0)
(0.9902043004643203 -0.02391627120347053 -3.98734917923599e-20)
(0.9989366042274711 -0.04746319699985656 -2.918283694280466e-21)
(1.014314299622522 -0.01865220765430456 -1.768757756102511e-20)
(0.9970274662571829 0.01655519697083445 -5.666740543144335e-20)
(0.9955644069387616 0.01063037776147479 -1.517371503763564e-20)
(0.994237938862805 -0.02856415999707483 0)
(1.003006635466047 0.0240225832539151 1.962481165736598e-20)
(1.0574501361707 -0.04234430769758089 0)
(1.111434284885745 -0.03555336156484092 2.63656661401954e-19)
(0.9957723420051917 0.01696520211138841 4.668835208044406e-20)
(0.6150711460842395 -0.008679508768239384 0)
(1.136538256772421 0.1498464142818807 -4.097722646479984e-21)
(0.8575687594026969 -0.09392062876915322 0)
(1.137687017059976 0.07325319431366224 -2.688202933668917e-19)
(1.317604695368501 -0.3895096849017363 1.303459068234357e-19)
(1.06987528940957 0.0616204800977992 -1.2684383510464e-20)
(1.010613506061664 -0.03226145531255888 0)
(0.9563510581054571 -0.216737999517538 0)
(0.5108408091049528 0.1513786368227656 0)
(1.015843764725398 0.008993869074197356 1.311814859449886e-21)
(0.686714134956615 -0.03056153721076705 0)
(0.9995678017416125 0.017535308964376 3.589500620291686e-20)
(1.025650918167377 -0.005320627590142738 -2.781740144124192e-20)
(1.079001153630434 -0.008103883809392752 2.799068782961076e-21)
(1.044935359844366 -0.02084387165198419 3.193872698496942e-20)
(1.042372631235208 0.01172735781945716 0)
(1.065196470907681 0.02485556905952549 -9.279184375971762e-21)
(1.049410476832756 0.03555211683659026 -1.831034082960813e-20)
(0.9830388669694184 -0.02278031474371719 0)
(0.6249258579129906 0.005101526549995732 9.175019194026232e-20)
(0.8941519576369092 -0.005891847033255935 -8.850373041216777e-20)
(0.9093822798191304 0.005308065861871823 1.447628168611908e-20)
(0.6295709260966571 -0.006413861308024471 1.404562238091792e-20)
(0.9797267818544951 0.001402280160603449 2.551285859188491e-20)
(1.004445205579746 -0.01744998667256467 -3.607698862648e-20)
(0.9790738783379217 -0.03575372748525529 -3.43690031959525e-20)
(1.085541617956396 0.001641480013773934 0)
(1.020252331757346 0.00473008833963387 1.011027864690155e-20)
(1.132160047981342 0.04906030760472713 1.301018884387395e-19)
(1.031942605045831 0.04027322292928031 0)
(1.022531265629029 0.002533653810017196 0)
(1.586678630992698 -0.1672833810803865 4.424063662356446e-19)
(1.055222062491162 -0.04744687599008062 0)
(1.016534508893172 0.008493231783735435 -3.845995397645582e-20)
(1.08451226340011 0.004057114988337196 0)
(0.4836257335209367 -0.0230553947530637 0)
(0.00551082792146816 0.0263614302811082 0)
(0.9910584558681678 -0.02440309845164656 1.217415034368705e-20)
(1.302649126750145 -0.09540240084532567 3.768338553242735e-19)
(1.034339248532135 0.03501991505288578 0)
(1.022220128906523 0.003447826473802009 -2.254474983349613e-20)
(0.957704047427457 -0.1605035511068971 4.320457071298987e-22)
(1.255767503659592 0.07920354476198543 0)
(0.5965440894261252 0.7280310041274426 0)
(1.314572405254932 0.1495414325353857 1.104221192035134e-19)
(1.680226762724912 -0.024878760321244 0)
(1.048981048069675 0.1108970907834731 0)
(0.7077149177970528 -0.02350898101667369 3.432662347272455e-21)
(1.049893592970763 0.04334282730755661 0)
(0.7514704566185314 0.1252243280508445 1.237230449019918e-19)
(0.9967618542658317 -0.01655247855706789 3.566830903018882e-19)
(1.036642319699596 -0.04264761240055905 2.792889746143438e-20)
(-0.3829596381463363 -0.01117410522513002 0)
(1.072169266307881 -0.01648071231276982 0)
(1.088093835416371 -0.003239012805862275 0)
(0.6495368736716349 -0.5058604100514877 -2.456949247923324e-19)
(0.9898501795701709 -0.001591168584994053 0)
(1.092408785636126 -0.02121265478359718 4.19555169466767e-22)
(1.18679133553523 0.1213203936037678 -1.987559445397532e-19)
(1.092755925869076 -0.04918989435724747 0)
(1.00612259605609 -0.02131188964769661 0)
(0.7865827354298368 -0.1772391568167232 -1.628532192278935e-19)
(0.8811763232864033 -0.1269191819488946 1.529699655561527e-19)
(1.029784730982234 0.01466268979763769 -2.253942437985688e-20)
(1.023108110625299 -0.008938418639089641 -4.625839383180271e-20)
(0.8811115691060268 0.01506994971153447 1.936125540966844e-22)
(1.5076922652509 -0.193753731999558 0)
(1.307159608880024 0.1202240607589244 3.047890189800318e-20)
(1.243748530576263 -0.07291383097475923 -3.207064213240759e-21)
(1.095683393166384 -0.0184253463697421 -3.868257826197447e-20)
(1.03614340214078 -0.01189903933990477 2.507020441555631e-20)
(1.092841352125757 -0.03905176236089658 9.091937424355233e-20)
(1.031638547855308 0.02032743318357545 0)
(1.04640695013824 -0.0379020664679757 0)
(1.115959522978989 -0.008937313456631289 0)
(1.091420270045219 -0.03853090106316268 0)
(0.9981154521539345 0.01123025187641747 0)
(1.148005518545877 0.08117310561849986 9.593071347294695e-20)
(1.337278129291586 -0.1493946208043395 0)
(1.034959185105082 -0.02529471670801431 -2.118515036335811e-22)
(1.049434087624354 0.05028800832616043 0)
(1.010283394176893 0.01456652775750744 -3.974790897511305e-20)
(1.033935649529971 -0.007387706497422274 9.077288402773968e-21)
(1.088918767368698 0.01347974790597762 -3.275967688186326e-20)
(1.085503121370289 -0.02806870402747121 0)
(1.071091665767318 0.006202858605604902 0)
(1.108574635573892 0.09458822176170645 -1.425128465409379e-18)
(0.9357103076540518 -0.1507733721305249 -7.055243299720777e-20)
(1.167588469622449 0.1138841388380924 1.132626999241583e-19)
(-0.4810701081695906 -0.001100621016730934 -2.903444838925849e-19)
(1.01808272659881 0.02864214524707608 -8.89697330383184e-20)
(1.004388024346765 0.004424575856302361 0)
(-0.2771674541804989 0.01194752782646855 3.552229508135169e-19)
(-0.04238842524206653 0.28629177271943 7.892198343277581e-21)
(0.995218839959084 -0.006248815956039936 9.894839425868163e-20)
(0.1881396759445479 -0.0427033542936199 1.376504858008039e-19)
(1.086525734026654 0.08185820582067015 1.443888831497575e-20)
(0.09411875280750748 -0.1120177022555039 -5.550222474128123e-20)
(1.108295782812751 0.002964136340417846 0)
(1.104222175027538 0.2574069744908112 0)
(1.021419536965021 0.02147005209796645 -1.741664974016099e-20)
(1.06879524890014 0.0503725209508449 0)
(1.027100333105214 0.02471168368973609 -9.175660983311183e-21)
(1.265050912216412 -0.5497559521495449 8.072639232926431e-19)
(-0.1194737387000264 -0.2201524738792167 2.194924841456535e-19)
(1.300065840083721 0.1178385250664897 -6.350844015998037e-19)
(1.121343725555455 -0.003646733184018626 0)
(1.121161054634702 0.09844119035989041 0)
(0.5282806612602678 0.08155711334233459 2.523458299004042e-19)
(1.023855532810456 -0.02044083610198936 9.305665568163331e-20)
(1.006578258500225 -0.02368859432915013 0)
(1.209941628206554 0.2702837381023936 -9.492749578746717e-20)
(1.264895633907333 0.1363449852960085 -1.597118860437622e-19)
(1.026646376760556 0.003336880682656479 1.53066895854528e-20)
(1.302239269735224 -0.0847889723005697 -5.025259966830106e-19)
(0.293941623471023 -0.01518874496716103 2.707349060218995e-19)
(0.8252360173027432 -0.1452060856801082 6.682360428861544e-19)
(1.041259341670195 0.04801216961887586 1.063331246904794e-19)
(1.038893128021872 0.0005393543572728067 1.888832890870251e-21)
(1.001411532895931 0.01941093307842477 2.998086886274432e-20)
(1.066504782671188 -0.03679963770124826 0)