/*--------------------------------*- C++ -*----------------------------------*\
| =========                 |                                                 |
| \\      /  F ield         | OpenFOAM: The Open Source CFD Toolbox           |
|  \\    /   O peration     | Version:  2412                                  |
|   \\  /    A nd           | Website:  www.openfoam.com                      |
|    \\/     M anipulation  |                                                 |
\*---------------------------------------------------------------------------*/
FoamFile
{
    version     2.0;
    format      ascii;
    arch        "LSB;label=32;scalar=64";
    class       volScalarField;
    location    "795.5";
    object      yPlus;
}
// * * * * * * * * * * * * * * * * * * * * * * * * * * * * * * * * * * * * * //

dimensions      [0 0 0 0 0 0 0];

internalField   uniform 0;

boundaryField
{
    FrontBack
    {
        type            empty;
    }
    Top
    {
        type            calculated;
        value           nonuniform List<scalar> 
15
(
142.2897836724769
133.5807515054537
138.0635942776103
144.4009028571457
159.7643596626177
131.367077246811
140.1307844201884
135.3509685564222
153.4555607035426
135.7248939210806
136.0872219363133
136.7734156737844
125.2653541144121
132.9132655270163
123.9565139169313
)
;
    }
    In
    {
        type            calculated;
        value           uniform 0;
    }
    Bottom
    {
        type            calculated;
        value           nonuniform List<scalar> 
15
(
155.5676398942842
158.1189578050341
141.0910013798286
142.0459560365154
141.1798769833253
148.4308409184665
142.7045544700361
143.1475349365339
143.4214118025733
134.0623985278925
125.7279266044541
141.5583108493688
122.4050735063655
123.4854623681854
124.1318645338709
)
;
    }
    Out
    {
        type            calculated;
        value           uniform 0;
    }
    circle
    {
        type            calculated;
        value           nonuniform List<scalar> 
32
(
56.02209954292433
21.98581412884387
65.2363646339785
25.46434601863729
20.09403301865064
56.21381867769596
56.61525841367173
23.75942912180784
22.21288176913151
65.47890312128358
39.79656502509691
62.92343084859992
50.62122644042842
17.34128906702042
22.85995583184646
18.02387125331553
39.32136548088445
59.8022245801066
61.04991693239162
24.96446262433947
65.78206997772264
63.77188400749245
63.08261289424167
59.87938217043487
64.14817583444376
45.99207931007889
66.44722563138318
32.10956004981462
37.944601656466
55.70749118063058
21.14597632293553
43.11040479301175
)
;
    }
}


// ************************************************************************* //
