/*--------------------------------*- C++ -*----------------------------------*\
| =========                 |                                                 |
| \\      /  F ield         | OpenFOAM: The Open Source CFD Toolbox           |
|  \\    /   O peration     | Version:  2412                                  |
|   \\  /    A nd           | Website:  www.openfoam.com                      |
|    \\/     M anipulation  |                                                 |
\*---------------------------------------------------------------------------*/
FoamFile
{
    version     2.0;
    format      ascii;
    arch        "LSB;label=32;scalar=64";
    class       surfaceScalarField;
    location    "912";
    object      phi;
}
// * * * * * * * * * * * * * * * * * * * * * * * * * * * * * * * * * * * * * //

dimensions      [0 3 -1 0 0 0 0];

oriented        oriented;

internalField   nonuniform List<scalar> 
1171
(
-0.9278988232629338
0.9278988233666534
0.7872951754783735
-1.098932779784648
0.311637604704916
-0.1926601176705203
-0.7677350754155742
0.9603951925653169
0.07210118548119027
-0.1178071799161104
-0.2120557193309995
0.3298628979457777
-0.7872951570017668
0.06927537921364388
0.7180197777879287
0.8106680436756575
-0.1776207236892683
-0.6330473203242188
0.8739813431869026
-1.04369319345684
0.1697118502283604
-0.2848965931497763
-0.09836230145666433
0.3832588942327296
-0.03641276637971352
0.5485529923254303
-0.5121402258408699
-0.509008653130509
0.8296873807866979
-0.3206787268277247
-0.4027037758840751
1.045520169321608
-0.1715388294139634
0.3942928542505838
0.05043506130621817
-0.4447279171630149
1.046206717179503
-0.0006865486864272996
0.4463565446184454
-0.05206367668988459
1.056653383006335
-0.01044666616063526
0.5798577432391838
-0.7725178610271483
-0.7240933060578689
0.5568243759866225
0.1672689300510302
0.2155971685278527
-0.7246058233744516
0.5497077753563555
-0.922423572654424
0.3727157977601818
-1.094223719840206
0.6865764102291755
0.4076473093982427
-0.5954534685813644
0.5590407017050546
0.01721992881487508
-0.2557466599851592
0.2385267333795713
-0.02322151831936834
-0.5249879483796918
0.5482094628099301
0.3999514412689746
-0.4983137446071174
-0.9188598820524839
0.9416507089955389
-0.02279082673006876
1.067897086040179
-0.01124370316921747
0.9350979812528795
-1.116889060942201
0.1817910797085681
1.067467582910079
0.0004295031350915427
-0.664268334919912
-0.05982497796955061
1.262021856591908
-0.8644719613063951
-0.3975498953574761
0.1486077002824698
-0.1097372448815378
-0.3251476174034222
0.4348848621396478
-0.2855556104856761
0.1919083329632013
0.09364727667256417
-0.5835182179451359
-0.5154145724094636
1.014149604087415
-0.07905162328069894
0.009878602229659916
0.8254854163473311
-0.8353640185629547
0.571692028329888
0.6903298307043932
0.4388157429811894
-0.03111234462319774
0.4310637840250475
-0.8079516493531376
-0.1026114774054955
0.9105631266711913
0.5024540692408878
0.254118735516076
-0.7565728045542759
0.004595807198149225
0.5313304130864511
-0.5359262216566808
-0.4899960745448345
-0.6042276495802343
-0.4228388569702981
-0.6940502029428128
-0.02753376366445308
0.270832948948266
-0.2432991855066463
-0.924916759957249
-0.005196245160629052
0.9301130051434658
0.3079516612868532
0.07530723034805614
0.7618273699368305
0.04884067598906118
-0.5329012441813988
-0.06255222735362621
0.04614752217174013
-0.8540991725629792
0.07732938994262145
0.8620544546232557
-0.9393838444356009
-0.347163434425008
-0.04057781396887837
0.3877412495733024
-0.6823079461700431
-0.2426088086996702
-0.6332328494361561
0.7105622388120049
0.6121401139787824
0.2175472657663512
-0.5432525653897411
0.9459894437024876
-0.7791155019015905
-0.1668739416532021
0.01475501507743972
-0.005789272685821877
-0.008965739525604132
-0.4032589490809021
-0.09505479400388288
-0.2419016779805284
0.8540417888935349
0.04841673691256083
0.3333870472836818
-0.3818037842043384
-0.4615582545907502
0.9640123164589468
0.6803012271811323
-0.7829127055205368
0.3178948687251226
-0.01453369132367952
-0.3033611721335506
0.9306823901643914
-0.9306823901549247
-0.7822369882571583
0.1115399641341787
-0.3235956825926972
-0.7499838011033005
0.7598624053155529
-0.09130112900250863
-0.1428389446400246
0.2341400742688126
0.8648686558850662
-0.03938323727736436
1.054637705488376
-0.8005189737600067
0.186614219780964
-0.316301710042344
0.1296874895229649
0.858522067087977
-0.09669469538650916
-0.6114101499878982
-0.0394053538313419
0.6508155038467689
0.1235519206523563
-0.230472039549183
0.106920120088335
0.8055314215241234
-0.9831521406852428
-0.4342557505790058
0.3290793873160671
0.1051763625195301
0.5333706848715158
-0.5565922018933153
1.022052522884724
-0.456269751265332
-0.5657827715132808
0.5992136590380407
-0.7192590186376889
0.06643605647533746
0.6528229615091735
0.1019492504430215
0.5699329197035413
0.05481666664779803
-0.624749586409313
0.1949887285518773
-0.08344877186271071
-0.4922314322221502
0.1450680023374606
0.05032390852128722
-0.8865504339858076
0.8362265254336312
-0.474552893132147
-0.7132145759629354
0.04894623898569779
0.4366303015030343
-0.005566515105989603
0.3001101298638406
-0.8553069052910935
0.5551967758481566
0.4157540396730592
0.5842459602034999
0.5606347343594357
-0.5144872157075581
-0.3663116153933553
0.03904987999723861
0.3272617359825156
0.6812699575479952
0.2494124348854796
-0.5677993346840352
0.5723951468729545
0.1114826762938632
0.874806784363641
0.01029622256766063
-0.6217063730865047
-0.7491372966883689
0.7994612088276492
0.5305275594465807
0.07123160110810832
0.3002285764444579
-0.3714601777868161
-0.1675227682526946
0.4447601671578317
0.08657022932023796
0.8737934464695729
-0.8021259009779225
-0.07166754530610898
0.6355014915631307
0.3104879582542587
-0.4307927149427246
0.574569133966116
-0.5033375315393729
0.4170358235983182
0.132671946683539
-0.0468064545580948
-0.5895074080952879
-0.1395657989497383
0.7290732068731105
-0.1496776468158071
-0.7810047403343666
-0.6110666263100984
0.360196377182204
0.2508702486232857
0.6220864753315284
-0.6117902547420121
0.2385617796152804
1.011753131883016
0.04288456667562868
-0.7491372898872988
0.2217150442879545
-0.2069600309456343
0.6803012260476402
0.8019864877213628
-0.8019864876319278
0.8376041812935492
-0.8331328964760397
-0.004471284707435619
-0.4453368185761733
0.8610908511852344
-0.1474712295614072
-0.344760199900458
0.7347709614748913
-0.6685678952610378
-0.06620306631941182
-0.7353699643779014
0.145862560912467
0.1391177810134408
-0.6720190262623906
0.7829127185010473
-0.950435486812229
-0.3662462403937355
0.2857638536425244
0.08048239205972577
0.1457118551617793
-1.009924600476958
0.8642127453894753
0.4805507990878453
-0.04173505614864251
-0.3080787785624818
0.5862367736760549
-0.2781579951503158
-0.7384974169377402
0.8842092672037363
-0.1570290167917787
0.7330948439203941
-0.8362572994549453
0.1031624562578879
0.9778293360335109
-0.5399616565653723
-0.4378676793260722
0.75518004267969
-0.06488200149523654
-0.03606729676792557
0.1858555711091189
-0.1497882763654984
-0.7757668037775738
-0.8401556275199074
0.07242055194441505
-0.7499838023933445
0.5140184612216405
-0.5545962704368123
0.09675614566861931
0.7160949101450715
-0.8128510557560661
0.7536085681284742
0.1742902637451623
0.5029184539917194
0.4970815459947728
-0.05521293837023981
-0.6086694898658879
0.6638824267246577
0.8785331469045
-0.004739700639114499
-0.7551800426713408
0.7994612153615028
0.1915793975902231
-0.4473260586034396
0.01363337313943855
0.002663772853019429
-0.01629714433767528
0.5893677180702344
-0.4375997630199659
-0.1517679553939316
0.7180197664208452
0.01228326236827123
-0.1070607844282681
0.4387155444373639
0.150652174697448
-0.01457847425969827
-0.007763782344073681
0.02234225658318088
-0.03251692201822749
-0.003550357607607918
0.245481050337037
-0.2600147363366154
-0.9590154957644298
0.001828520993683197
-0.1595542804289066
-0.1207651960329567
0.09474899351637453
0.7221106364889588
0.7289390393356951
-0.1446930855627038
0.6682364255864771
-0.5714802773555375
-0.2119764121372792
0.3985906423589823
0.6956128665889594
0.02240689988513981
0.2417722425714343
-1.074905132690875
-0.9504354880584709
0.3023851493151266
0.7598624062278467
-0.2092670651552492
0.06642812758164458
-0.7239391542821467
0.9099030157854613
-0.1859638612696982
0.4160467569904999
-0.02830550571897887
0.7713445307070838
0.2807409887352028
0.3760163502266168
0.07034018119656996
-0.6587136459123977
0.6587136458829084
0.2148449686834912
0.695718155405749
-0.0560380800309177
0.3894251223685424
0.3788467821787261
-0.01215835717104706
0.02579174861805853
0.4485208673085226
0.03202993000872235
-0.7384974200328288
0.5339945592587571
0.2007764063699534
0.3010115082125025
-0.1151559261306232
-0.6956128582499591
0.1794804579208747
0.7304225517748816
-0.01028635985221458
-0.8135766043888574
0.8238629641982181
0.6964040301987104
-0.7919550195037169
0.09555098916232978
-0.7536085705709606
-0.151184643686272
0.212323488374263
-0.06113884581759734
0.07757642751627589
-0.1782366783386695
-0.113500781229338
0.2917374579456735
-0.005060937071898295
-0.009517547777955371
0.7065270663552113
-0.7168134249522249
0.8867239738987972
0.07367121840565724
-0.3160852598233362
-0.5197842353541202
0.8358694945753996
0.1041293558653952
-0.1041293568971174
0.3248137473263115
0.4727436203964575
0.6166703103994664
-1.089413930312195
-0.194079628086528
-0.5856046150234584
0.7796842431112198
0.013790963162513
0.2203491174027784
0.376303875019478
-0.2527519597916459
1.015658482135131
-0.5429148608733734
0.6680779205323655
0.9936740678457439
-0.3770037561143328
0.2288326431663828
0.8842092620769147
0.7126704329601297
0.2138905773988492
0.7277601314657522
-0.7810047386606098
0.34128633953662
-0.2805032315565665
0.2547071013833398
0.02579613633252039
0.8471296980587573
-0.001382235756417223
-0.8457474622665374
-0.7022237660332566
0.7026532694797631
0.5546631761991906
-0.702223766921
-0.7126704328954084
0.7026532692713532
-0.03442864803635393
0.9095432576607542
-0.02281928712137682
-0.6812699613951889
0.6122932726023462
0.06897668884866155
0.5385044953968083
0.5374405359612178
-1.07594503146732
0.4878655663318744
0.5277929159079473
0.5458797248157511
0.4576371475003781
-1.003516872295717
0.4929452036042562
0.500728864824324
0.612293274941787
-0.525585950750932
-0.4659866564195593
-0.5566946654849804
-0.5148464291737723
-0.1201623865787451
-0.01255791376011198
0.01255791335588204
0.5118426801101714
0.5240388191294705
-1.038885248082186
0.57249764573222
-0.2722690656040693
-0.8841467199642739
0.3441850641314262
-0.6330502102787687
0.390441405397444
0.001726296299562422
-0.8258711303168086
0.8241448342500142
0.4208602534856414
-0.02213522440130385
0.8692649188012666
-0.9493181088594094
-0.8328370548972608
0.05412934614883906
0.7787077089310122
0.5653817564362397
-0.4400189256126962
-0.125362831683314
0.6502611895350477
-0.7293128114628054
0.8885977065274662
-0.8287196554914444
-0.05987805104834588
-0.01323671875849793
-0.7888891820255166
-0.1106251861813363
0.7119348375553891
-0.6013096513306897
-0.9390706027919791
0.9258338841162268
-0.7247862044654504
0.6899935809741078
0.0347926235997603
-0.8082517018850627
0.03465895837857293
0.7735927434265318
0.0619411122032096
0.04218824518075028
0.4327820704670461
0.06072040193070369
-0.8514965466001646
0.7907761449192212
-0.6456278293985895
0.5904148904718031
0.8882550988453352
0.0725690051321569
-0.9608241035725522
0.05541804725544891
-0.04938701247222867
0.3766487591921039
-0.3819144416916249
0.06561274294590098
0.8412661419852632
-0.8395398466273126
-0.7345804855153042
-0.816634402713332
0.02774522179486643
-0.1639093234232997
-0.8508803131610136
0.02216065779558556
0.6216237508450533
0.04661267109638909
0.03088882014426302
0.5344929415176066
-0.8119474573088077
0.8466064125313616
0.5657827757065049
-0.8480063579092924
-0.8665015945270684
0.04304166303699653
-0.02783364368217844
0.8358101555757058
-0.8079765118243418
-0.02673547997981987
-0.762414132289024
0.5443061992068359
0.1520978260807831
-0.02386269383260492
0.8931276112896219
0.9799632329885909
0.8627402496241994
-0.84057959187025
0.1479442604755321
-0.1479442572607786
-0.1178766669320484
-0.4719566056979311
0.0319376847857492
0.2703211111118742
0.03206403794191937
0.3882996015538913
0.8663921295841168
0.009071782204316649
-0.01413272137304699
0.6585841362115378
0.3414158637506361
0.7836594512689468
-0.5835182182404292
-0.7781120875210416
-0.8093587550647537
-0.6798624437874587
0.6798624438596379
-0.168108914750983
-0.1554867764593059
0.6023706129701463
-0.8117873921419063
0.2094167792071057
-0.4940174666981365
-0.5689205895035599
0.2780165495732816
-0.9720667539374439
-0.9002102984713577
0.8403322479130275
-0.8127882411013307
0.8405334623753494
0.6486522692443363
0.1341457440486772
-0.7827980133189786
-0.7745661309279201
-0.1463624647875962
0.7246823041343509
-0.578319839544144
0.03381816957440547
-0.01223519276491895
0.01653489552837945
-0.004299704275492025
-0.3536869356716199
-0.1182696709193996
0.8803871599719245
0.7477908954139927
-0.2455969093754707
-0.5021939868909207
0.6224280789656423
0.6856831729350321
-0.470838203884783
3.051119685850215e-05
-0.2855861183827344
0.01551459408481234
0.7512402969613725
-0.7667548908066538
-0.3234144859809334
-0.0732326917967113
0.07641869544014573
-0.9650813556977004
0.1193338901860651
-0.6776416513260992
0.05313218147473776
0.6398748980537086
-0.6930070795952196
-0.7560310578189798
0.07838940655389597
0.5883494237266188
-0.6615821155784555
0.1575651514625912
-0.3358018323794188
-0.770859936968886
-0.00370619404482189
0.3710947661331375
0.6000972687749888
-0.02552813517648622
0.01917832393730538
-0.01917832083711155
-0.02032169518426802
-0.04839711382505937
-0.2321061255478373
0.02872271626237101
-0.01965090148823757
-0.7242472681033224
0.27926403750352
0.6802877352440726
-0.6887155743910761
0.008427838950205071
-0.5937625657749457
0.6468947496076924
0.6539645148403401
-0.06561509511222711
-0.6307351257694336
-0.1252959292016164
-1.050712132242316
0.01105135099661014
0.136892917508065
-0.7087326792708364
-0.7413603026789215
-0.7635391547766939
0.3659892628169079
-0.4075393283608016
0.4602149131477308
-0.05267558323929555
-0.6625168659463524
-0.04621581349765171
0.5015293920719729
0.7306853284419446
-0.235651251772616
0.1148860504570124
0.9687875545158243
0.4467923285936742
0.1329436847684339
-0.579736013362432
-0.6768107905342219
0.01429392064556429
-0.04471784174650389
0.03248265839181337
0.6363424477384598
-0.7759082430366669
-0.001742518732569678
0.001742520722987058
-0.6011566614193178
0.6490776323372718
-0.04792097150648088
-0.6459219662197252
-0.1132779647716539
-0.6715145505554688
0.06078333104996315
0.6030990963513231
-0.1373937047944418
-0.817877009680367
-0.5714498611420158
0.5677874798560754
0.003662377751051047
0.6287229862350743
-0.6202951449818908
0.3225622490417253
0.213834173715643
-0.5363964226963562
-0.1050178577798476
-0.6013720939857967
-0.09163498346154558
-0.1543643308749132
-0.5106665352180713
0.4041347831551023
-0.4991895794654365
0.1268306099719021
0.678482003641854
-0.8053126133791154
0.5992136590588798
-0.3676022487273903
-0.03993708640112054
0.08033391546253402
-0.5910004573808625
0.5514804028739271
-0.04063148689989732
-0.5108489155630734
-0.313113032036264
0.3056878409553064
0.007425188410661702
0.4539104088341611
0.1185872311886367
0.05259242652716647
-0.3165402916621388
0.1575300236637348
0.1590102675608677
0.2296278014430962
-0.007912745525858574
-0.2929546338918978
-0.3099617171341998
0.3500245439379001
-0.04006283480032252
0.7874118083538959
-0.6255904183932592
-0.02033154855782863
0.4992157207278561
0.2831103168985122
-0.528707226879545
0.5774940228522777
-0.5774940228652831
-0.2897416276367648
-0.5864474986458155
-0.2955891251740332
-0.5864474984374157
-0.5948348387449248
-0.8384974232379736
0.1699295295586715
-0.5936527262612774
0.8211044666473142
-0.003115866484093537
0.1175044607042735
0.4825928106201068
0.09678300815397856
0.1860831969055836
-0.0365116305028462
-0.1495715653617294
-0.02586526041525402
0.5917724578987077
-0.9444625678577997
0.4246783325744597
-0.007809955964210503
0.004024968499676436
0.003784990487428968
-0.6439349344854259
-0.1318708291500187
-0.4685540251963992
0.6014977149044103
-0.5035339777746428
-0.3270368593344165
-0.2639635711950688
-0.2712971266805714
-0.1115276554920998
0.1115276530729988
0.1529113065145948
0.0594121814821163
0.1971345430436552
0.452302164356462
-0.5714148764574544
0.1028608522366369
0.2468971251000426
0.4665098043001406
0.5334901952994771
0.6430073112943353
0.08854800111792237
-0.005511836827226608
-0.08303615172908335
-0.2770865940843556
-0.5407904159341799
-0.5511577286591044
0.1147760434312365
-0.1266229134603154
0.01184686945210767
-0.1054390086475179
-0.3853916885698524
-0.04924475188418943
0.6523438398103756
-0.4990421725294523
-0.1448927618903567
-0.3328261322826284
0.2888531389230937
0.1277635610352889
-0.6176960920568493
-0.2046205453364908
-0.2629210080880526
0.002906264084301374
-0.4218439410623131
0.3239007067871492
0.09794323485766022
-0.09588283490379426
0.2917218499839614
-0.8959495043262544
-0.4574806616764709
0.6264785751482572
-0.7732309971274279
0.668213139309932
0.3400381050284099
-0.1240594525592421
0.2238032986026661
-0.09974384557158864
0.02659959873982098
-0.5862814359944323
0.02884498206937318
0.5574364539793064
-0.9006148632645506
0.5478199319477838
-0.6656965985169465
-0.1041303199090524
0.1099137201145315
-0.1099137184004085
-0.3165097754926386
0.3596563865417011
0.01699237419958658
0.02969743690724401
0.05885056682926591
0.5049994288904801
0.6647355981121542
-0.7364031427310898
0.03236120998787896
0.02111934229221269
-0.001941041624570493
-0.007165530067239927
0.007165528097359506
-0.4141663600320158
0.5327535942520225
0.0157254820656829
-0.01572548207953318
-0.7925011662609256
-0.06120541373345061
0.1231465282209827
-0.4569613146007087
0.5598221705458036
0.4522596492940597
-0.5001806252948333
0.1502947919062191
-0.1502947885770039
0.03230558172497543
-0.006513837454542041
-0.04257188727896838
-0.9752235335251462
0.537355854445676
-0.4668419578185809
0.04218825737865865
0.5150109329488455
0.03076880933166488
-0.5457797423242978
-0.6164641862751875
0.1174220169697848
-0.3290470165238097
0.01351410937113582
0.3155329090116496
-0.1558175695059309
-0.07983366365365509
-0.5410235157035387
-0.04525791545177319
0.1368929084999622
-0.0399175785103319
0.03817505301648637
0.08047886045868041
-0.0804788604054841
-0.5280944508591943
0.4880316264336163
-0.4148712102044949
0.1613156752996247
0.6223437759681689
-0.09714320125062599
-0.002643399938783694
0.002643398571121332
0.5329458687697836
-0.08320314700858496
0.005784357178437219
0.02697919412397647
0.03502272743183721
0.6850874984122221
-0.7682906456706274
-0.6530781778146429
0.6327466306234201
-0.1071855743520312
0.3138690125817539
0.7457478794201245
-0.0203216955520267
-0.265979831225732
0.1508239081410104
-0.7445999125545292
0.48394156378862
-0.4278729020777081
-0.1014532544958586
0.003282683414752561
-0.01427833325911136
0.02321087054367644
0.4108767117495177
-0.1215216540719071
-0.3893272587425785
0.6288299029048733
0.01972344008953966
0.009783753574872945
-0.009783752692903394
-0.3506098849453589
-0.07579227402690751
-0.5602661018819119
0.5571502352853865
-0.2375602347068793
0.4647151126500681
-0.1510743480109393
0.7309320908171508
0.6701618687354884
-0.03991758308385863
-0.6176541254997694
0.5631010839979086
0.285829220759393
-0.2813009183533343
-0.004528300611091389
0.5368638030485375
0.0934149444416303
-0.03902973552927528
0.1958908143448771
-0.1568610787334385
0.1195085981026611
-0.1195086001911627
-0.8586622175093684
0.002350543128303958
-0.1136857703398264
0.1406649652697267
-0.1315352092546415
0.1315352061764139
0.0211193428929984
-0.02296511600399382
0.6698279996259212
0.06059455102954731
-0.3226107466532918
-0.06278094074900173
-0.471242620386572
-0.0469969271868001
-0.1512344551429807
0.1512344514405095
-0.05073058977717706
0.1436954769878246
-0.1436954733270828
0.1360617547223161
-0.1360617574324092
-0.3161240663208252
-0.114668648517958
0.2259878385692515
0.1030915508322417
0.034799252057283
-0.8211750755264504
-0.1985991188711301
0.1699111490230974
0.02166824835530202
-0.2642787949975326
0.1262015854306283
-0.1262015821939318
-0.4142914735038739
-0.08489810671832725
0.2357410779747077
0.00278565540686153
0.04056128209526898
-0.5441601003388578
0.5785887483638001
-0.03709978688312766
-0.01363079759913039
-0.0258287108898389
0.01931487357130127
0.006599304310949147
-0.1848191766989985
0.1782198729778111
-0.108681799163331
-0.227120028263085
-0.1443635204687524
0.1443635167852377
0.07248908903633045
-0.07248909112924339
-0.01900319549540131
-0.1085364794026022
0.1275396763423468
0.2367894587280501
-0.183425533351024
-0.02806151388115563
0.02612045795077055
-0.1324320357095571
0.62046366114409
-0.03903856678544826
0.4273901344963263
-0.04333460777150797
0.06567686114203181
-0.1529339089067292
0.1529339052169245
-0.6368516130026268
0.3081229958095114
-0.07929034914141025
-0.2340686327625904
0.003596583326885287
-0.1205777744294824
0.1611390563921909
0.1959607863926233
0.09577666995864023
0.0970304197041478
-0.06200769362397048
0.07312346842575433
0.0416525728959631
0.06416033168440835
0.1057508171009445
-0.09902371855571433
0.2139097612944098
0.01152627395348842
-0.1186746555443979
-0.09957025992293478
0.09618812154169695
0.003382141662067697
0.01133557842592576
-0.02361115364415266
0.03743102148704876
-0.0374310218672023
0.07531303999076892
-0.05530371715176103
0.05530371667434111
-0.2243844154866989
-0.05299777528266197
0.01165672002084009
-0.1030591852350468
0.01655316855818353
0.1088031610606195
-0.1088031591259141
0.2939040158869318
-0.2709289969326514
0.1622471951977613
-0.05106995349837258
-0.2198590460409744
-0.01694358751257578
0.01694358858404168
0.3676444344854127
0.2851785327831773
-0.5281004704963393
-0.0939430056298797
-0.0326799061765127
0.5289601151529048
0.2109607490999267
-0.1702031549059992
-0.379454640764295
0.07650455404178524
-0.1472172576894546
0.1867716406337254
-0.03955438411012018
-0.06715058603051172
0.06715058761422336
0.8222524334797371
-0.560432917482764
-0.006272943908632733
0.01760852656689706
-0.02000756791265063
-0.2873576064931959
-0.01749388594030053
-0.01282830969280875
-0.1321709885883958
-0.5722914554938574
0.5561407199937786
-0.5692355409749843
-0.006870950427599594
0.1013170909671975
-0.001699446825600911
0.0168721459024408
-0.1672248363735323
-0.3360926094713363
0.2330334248089211
-0.05406125443242352
0.03505806664039646
0.1320661523760999
0.1736216940135696
0.3413026721162392
0.2758896252225911
-0.277589070418637
-0.06139520828082565
-0.1552914594458172
-0.220554522739488
0.07454868125092269
-0.01038834815312263
0.2134714256650226
-0.1965992790713607
-0.08628562121918468
0.1594090860172976
-0.3554013694834837
0.2079310176961368
-0.1913778497706499
0.08957732616913641
-0.4789045886626471
0.1739433259469206
0.1706899861123375
-0.2569756061190153
0.07341926291900649
-0.1948878683997079
0.1773939820204837
0.01739842463631567
0.1420106667522754
-0.03957822612657765
0.0656395241162457
0.467306344259217
0.02048742698916072
-0.08549690704057139
0.05360014110274982
0.1263866314297725
-0.2601089077941556
-0.2309162499453302
0.5597451284074189
0.1570173582583496
0.07872372304877898
0.07461026245896886
-0.03099884823794537
-0.009709039227300339
0.005180712797552983
-0.03266906104704985
0.1706689577802365
-0.1775399074448738
-0.06228603266682875
0.0198475263937865
-0.1472210306103852
-0.05287720027664768
0.1516237503610167
0.2770387674857536
-0.03941653665752394
0.009605833505615035
-0.2554255325935729
-0.1328314456473566
0.2363027359470085
0.1783726139373628
0.1297503840372144
0.02209357476854667
0.08850111394751495
0.05245485709835005
0.4525445718663421
0.01490841008686055
0.09796533079899002
0.04305740590786603
0.07225812557758386
-0.1153155340040538
-0.242921931530561
-0.2004661913450124
-0.01939285782511612
-0.2018658209485958
0.2748183891167109
)
;

boundaryField
{
    FrontBack
    {
        type            empty;
    }
    Top
    {
        type            calculated;
        value           uniform 0;
    }
    In
    {
        type            calculated;
        value           uniform -1;
    }
    Bottom
    {
        type            calculated;
        value           uniform 0;
    }
    Out
    {
        type            calculated;
        value           nonuniform List<scalar> 10(1.033745290728419 1.064090445708507 1.022681321921928 1.020738119247239 0.9950776824245759 1.015575294110588 1.035881500215752 1.062938056335064 0.8672356510221901 0.8820366237860892);
    }
    circle
    {
        type            calculated;
        value           uniform 0;
    }
}


// ************************************************************************* //
