/*--------------------------------*- C++ -*----------------------------------*\
| =========                 |                                                 |
| \\      /  F ield         | OpenFOAM: The Open Source CFD Toolbox           |
|  \\    /   O peration     | Version:  2412                                  |
|   \\  /    A nd           | Website:  www.openfoam.com                      |
|    \\/     M anipulation  |                                                 |
\*---------------------------------------------------------------------------*/
FoamFile
{
    version     2.0;
    format      ascii;
    arch        "LSB;label=32;scalar=64";
    class       volScalarField;
    location    "3.8";
    object      p;
}
// * * * * * * * * * * * * * * * * * * * * * * * * * * * * * * * * * * * * * //

dimensions      [0 2 -2 0 0 0 0];

internalField   nonuniform List<scalar> 
808
(
0.119462
0.022036
0.0213602
0.121935
-0.26344
0.025838
0.0320953
0.0252479
-0.159652
-0.0379792
0.0406643
-0.180781
0.0277645
0.0243638
-0.371371
0.0161811
-0.383767
0.0132781
0.026785
0.0101353
0.0452108
0.338954
0.0555014
-0.013598
0.408691
-0.148887
-0.0818649
0.0120772
0.0114492
0.0165171
0.00770695
0.0175806
0.0116217
0.013808
-0.0891793
0.58495
0.0156152
0.019388
0.028558
0.0177395
-0.0632745
-0.076791
0.0385354
0.029306
-0.0975648
0.0608523
0.0207973
-0.0125553
0.0310664
-0.201279
0.0371477
0.0024194
0.0329469
0.004621
-0.152656
0.0285212
0.00252392
0.0336211
-0.0409313
0.0207564
-0.146776
-0.022802
0.0332867
-0.185435
0.0329616
0.0439684
-0.315657
0.0253048
0.0401623
-0.313807
0.0336416
-0.350668
0.0341181
0.025857
0.15858
0.0347309
0.0146559
-0.143836
0.0349555
0.27271
-0.104955
0.0126552
0.0140533
0.238762
0.0369003
0.00121529
-0.39645
-0.174974
0.0291151
-0.207981
0.0384392
-0.114341
0.232371
0.121451
0.0257399
-0.306662
0.0242977
-0.0634496
-0.116881
-0.271598
0.0336581
0.0109388
0.0420536
0.00883247
-0.0612028
0.0496507
-0.101518
0.0168443
0.0217848
-0.0021544
-0.0169314
0.298673
0.0277069
0.0487415
0.0293113
0.415876
0.0267876
-0.301118
0.0248786
0.0491283
-0.0489061
0.0380801
0.035124
0.0447542
0.079377
-0.113024
0.0998846
0.0559277
0.0120398
0.069421
-0.39231
0.0289256
-0.0414061
0.0833482
0.0229151
0.0356509
0.0383751
0.00367003
0.0349788
0.0309044
-0.440008
0.0428276
0.0275436
0.0359554
-0.0832392
0.0483351
0.0838139
0.142268
0.0561738
0.011538
0.0305561
0.299716
0.0681624
0.485636
-0.395404
-0.124667
0.0269394
-0.17402
0.0318388
-0.128906
-0.350999
-0.421777
-0.347527
0.0500071
0.0646331
0.028985
0.0480583
-0.381114
0.0306422
0.0374187
0.0422036
0.120241
0.0465431
0.0957364
0.0297117
0.0537962
0.0652133
-0.179824
0.0317977
-0.382513
0.02896
-0.20271
0.0428287
0.24108
-0.305172
0.102113
0.0312318
-0.146304
0.0353488
-0.102202
-0.407954
-0.0520592
0.0212972
0.0677276
0.042638
-0.422926
0.0230468
0.0256312
0.0223768
0.0457064
0.0592964
0.0258616
0.0236758
-0.352869
0.338967
-0.375004
-0.353366
0.00693686
0.0225489
0.036987
0.00473326
-0.433778
-0.373994
0.025237
0.0113642
0.0269954
-0.360431
-0.106817
0.00752373
0.0355032
0.00142316
-0.1598
0.0251874
0.0289779
0.01785
0.0185075
0.103375
-0.402471
0.0246815
0.01006
0.0915708
0.0187136
0.0178798
0.013156
-0.0707422
0.026067
0.0106602
0.00641854
0.00478928
0.0232826
0.00714506
0.000998499
-0.00100733
0.0280029
-0.00204988
0.00304288
0.00152737
0.00587833
0.00173176
0.042559
-0.355719
-0.00110543
0.00439982
-0.0637053
0.00778829
0.02447
0.0196102
0.00094323
0.0245626
0.0816841
0.0239109
0.0117324
0.0069982
0.0763616
0.022826
0.0130289
0.0170378
0.0415544
0.0183207
0.033366
0.0241551
-0.435246
0.22979
0.00951821
0.0199511
0.00826581
0.0112979
0.00681867
-0.233682
0.25076
0.0190525
0.0211414
0.0128309
0.0710953
-0.0247021
0.0139243
0.0402215
0.067224
0.022671
0.0350795
0.0294146
0.0236034
0.00878161
0.0123064
0.0254679
0.0104496
0.0242975
0.015296
0.0241465
0.0223979
0.0140226
0.0143262
0.0178999
0.0126543
-0.536531
-0.0947944
0.0298666
0.095317
-0.197287
-0.225979
0.0175029
0.01582
-0.371913
0.111263
0.142986
0.0226161
0.0282434
0.0298101
0.0162829
-0.249452
0.0325175
0.000234366
0.0247841
0.00587554
0.0114415
0.0292315
0.0365608
0.0222347
0.0155746
-0.346056
0.10168
0.0210343
0.0825647
0.0774496
0.0216018
0.189512
0.0114652
-0.168817
0.508117
0.0456148
0.0088907
0.0280282
-0.000275188
-0.081371
0.0338279
0.0322619
0.0328712
0.0331344
-0.0104503
-0.338165
0.036011
0.0853022
-0.000141673
-0.342362
-0.351987
-0.455243
-0.376346
0.039572
0.0336034
0.0392737
0.0460606
0.0111521
0.0108
0.0389501
0.00842026
-0.531728
0.0417688
0.0377253
0.0147373
-0.128615
0.0482019
0.00595282
0.104651
-0.395622
0.0366505
0.0232539
0.0360574
0.0560313
-0.343058
0.0425298
-0.42016
0.0380358
0.0661224
0.0211397
0.0327276
0.0411166
0.103189
-0.371096
0.023751
0.0370979
0.110394
0.0475806
0.0224834
0.0388201
0.026393
0.0285662
0.0824909
0.0232739
0.0311249
0.0103565
-0.222957
0.158744
0.0125339
-0.0352895
-0.0278579
0.0217216
0.39658
0.00031567
0.00536839
0.133353
0.0376531
0.0386865
0.0213394
0.0697102
-0.00298446
0.0737388
-0.0271273
0.026596
0.00288645
7.56582e-06
-0.00012659
-8.86415e-05
0.0118409
0.117063
0.0974807
0.0147046
0.00756939
-0.02531
0.00558957
0.0274939
-0.403074
0.0887593
0.0394747
0.0105418
0.177756
-0.317241
0.0169874
-0.11349
0.0288019
0.0313941
-0.00207931
-0.270101
0.165822
-0.342811
-0.482548
-0.0116118
0.100247
0.0263335
-0.332477
0.316407
0.0200528
-0.390565
0.0189645
0.0480131
0.534644
0.0123733
-0.00390477
-0.0035869
0.0515734
0.0166373
-0.0642365
-0.432847
0.0472827
0.0493331
0.0499363
-0.286961
-0.345633
-0.285843
0.0280201
0.0483924
0.0714098
-0.00296907
0.0271187
0.0677881
0.0872982
0.0359545
-0.15749
-0.41712
0.0559671
0.0093549
0.0280529
-0.01461
0.0671906
-0.061825
0.0124442
-0.499028
0.418776
-0.237129
-0.368657
0.00537527
0.00632382
-0.375059
-0.35404
0.105023
-0.367503
-0.0226113
0.818949
0.0215629
-0.385952
0.0238554
0.0420494
0.0497604
-0.478808
-0.404225
-0.337287
0.0110133
-0.096359
-0.39219
-0.00868766
-0.00447226
0.0444491
-0.357857
0.00570733
-0.531507
-0.435552
-0.504027
0.153036
0.00917994
0.0272986
0.0883782
0.116604
0.0144996
-0.330488
0.267688
0.0586101
0.0125291
-0.472887
-0.528758
-0.364545
0.0561362
-0.381064
0.0582001
0.0701562
0.0664189
-0.149322
-0.26029
0.0121084
-0.340255
-0.419159
0.0158886
0.023709
-0.0626295
0.00368968
0.00908088
-0.412313
-0.40921
-0.0832389
0.0585862
0.0409772
-0.364502
-0.400795
-0.30564
0.0618696
0.0060643
0.0667715
0.0128556
-0.381415
-0.409124
0.0730439
0.0378108
0.0278869
0.022744
0.0352727
-0.443086
0.0293038
-0.298666
0.0337149
-0.265938
0.058776
0.0133864
-0.483757
-0.577235
0.00434259
-0.496135
-0.493426
0.0390658
-0.146735
-0.371135
0.00583044
-0.330347
0.0241805
0.0294046
0.0491384
-0.181235
0.0526372
0.05681
-0.552696
0.0143217
-0.40126
0.0232157
-0.33336
-0.62682
0.0714178
0.22441
0.410521
-0.000997102
0.0153105
0.000599421
-0.373014
0.600578
0.027111
-0.273492
0.0210067
-0.0899699
0.0662515
0.43631
-0.486961
-0.016926
-0.0362716
0.0274185
0.0134563
-0.574033
-0.329996
-0.42693
-0.417031
-0.298529
0.0158774
-0.379725
0.0609961
-0.351149
-0.400214
0.462914
0.54257
-0.439481
0.0852387
-0.368359
-0.00805701
0.0659322
0.353946
0.0660779
-0.359835
0.10197
-0.619479
-0.0381519
-0.27424
-0.085788
-0.419576
-0.373136
0.0164842
0.0194663
-0.348168
0.41598
0.631937
-0.392419
-0.413752
-0.386914
-0.0365663
-0.412573
-0.387337
-0.211057
-0.352278
0.712803
-0.446082
0.703288
-0.445967
0.304347
-0.349979
-0.00719489
0.125847
-0.616974
0.195649
-0.356237
-0.409349
-0.438452
0.828733
-0.359967
0.181241
0.121614
0.604341
0.106533
-0.46891
-0.41461
-0.11816
0.0125666
0.0223161
0.486302
0.0155442
-0.0413876
-0.391486
0.0536054
-0.151583
-0.23364
0.0275238
-0.392693
-0.18088
-0.233963
-0.403827
0.0150108
0.0926484
0.0268683
0.0547095
0.0928257
-0.441943
-0.447313
0.0421698
-0.0164663
-0.567725
-0.624404
0.115748
0.151084
0.0802296
0.625344
-0.108858
-0.175737
-0.473753
-0.400631
-0.0882963
0.0249434
0.721461
-0.558741
0.346022
0.0243294
-0.54743
0.111856
-0.147253
0.356406
-0.19799
0.012933
-0.361154
-0.103258
0.166906
0.771458
0.309057
0.718455
-0.4518
-0.409633
-0.452024
0.110779
0.233337
0.0301893
0.330208
0.109747
0.45952
0.223822
0.0578433
-0.217763
0.00114369
-0.293186
0.840565
0.382342
0.605622
0.46658
-0.347274
-0.42607
-0.382857
-0.355457
0.0374997
-0.433
0.0758057
0.551715
-0.442809
0.0195849
-0.339916
0.151517
-0.430276
-0.482184
-0.119905
-0.401108
-0.384668
-0.39868
-0.368802
-0.0964227
-0.454731
-0.159616
-0.156772
0.103607
0.616616
-0.293775
-0.352093
0.787079
-0.346241
0.260328
-0.3149
0.35695
0.0733619
-0.447004
-0.506816
0.393341
-0.304264
-0.409688
0.162019
-0.356807
0.0171382
-0.402175
-0.191894
0.0238286
0.535955
0.738046
-0.401929
0.20477
-0.234308
0.77954
0.0165262
-0.404824
0.017698
0.722299
0.162337
-0.414221
-0.399076
0.426745
-0.285052
-0.0203575
0.29727
0.212174
0.274625
-0.329794
-0.41012
0.647518
)
;

boundaryField
{
    FrontBack
    {
        type            empty;
    }
    Top
    {
        type            zeroGradient;
    }
    In
    {
        type            zeroGradient;
    }
    Bottom
    {
        type            zeroGradient;
    }
    Out
    {
        type            fixedValue;
        value           uniform 0;
    }
    circle
    {
        type            zeroGradient;
    }
}


// ************************************************************************* //
