/*--------------------------------*- C++ -*----------------------------------*\
| =========                 |                                                 |
| \\      /  F ield         | OpenFOAM: The Open Source CFD Toolbox           |
|  \\    /   O peration     | Version:  2412                                  |
|   \\  /    A nd           | Website:  www.openfoam.com                      |
|    \\/     M anipulation  |                                                 |
\*---------------------------------------------------------------------------*/
FoamFile
{
    version     2.0;
    format      ascii;
    arch        "LSB;label=32;scalar=64";
    class       volScalarField;
    location    "1164.5";
    object      yPlus;
}
// * * * * * * * * * * * * * * * * * * * * * * * * * * * * * * * * * * * * * //

dimensions      [0 0 0 0 0 0 0];

internalField   uniform 0;

boundaryField
{
    FrontBack
    {
        type            empty;
    }
    Top
    {
        type            calculated;
        value           nonuniform List<scalar> 
15
(
142.2831009090015
133.5620826407101
138.0604643382765
144.3866726503752
159.7584153198729
131.3661528628717
140.1160752693011
135.3399038272498
153.4493976160201
135.7261511452423
136.0787914596842
136.7793035595456
125.2525213422603
132.9083378835909
123.9562227637924
)
;
    }
    In
    {
        type            calculated;
        value           uniform 0;
    }
    Bottom
    {
        type            calculated;
        value           nonuniform List<scalar> 
15
(
155.5682434468164
158.1156861099414
141.1038901307809
142.0646221429795
141.1864926348372
148.4486551567362
142.713934205774
143.1570053958739
143.4212638279683
134.0676514601772
125.7348681251793
141.5629828424661
122.4081717801129
123.4863771973606
124.139653795986
)
;
    }
    Out
    {
        type            calculated;
        value           uniform 0;
    }
    circle
    {
        type            calculated;
        value           nonuniform List<scalar> 
32
(
55.99865981381851
21.74106134123343
65.19197405984389
26.43653049721525
20.424804724232
56.28689530991286
56.58450518927911
23.82098996981471
22.06818731970331
65.42980392735559
39.78928273382331
62.88423002817731
50.6753920021958
17.70859628520937
22.52548494152559
18.68825306201044
39.36554786782854
59.85700498520675
61.1110922000204
26.17228856921449
65.83347936337852
63.71761783903453
63.13338439303467
59.81803856767685
64.20269429215588
46.083935605904
66.49812626302595
32.23604143753273
37.83772080376496
55.63500127845065
21.39958375678522
43.03139953627157
)
;
    }
}


// ************************************************************************* //
