/*--------------------------------*- C++ -*----------------------------------*\
| =========                 |                                                 |
| \\      /  F ield         | OpenFOAM: The Open Source CFD Toolbox           |
|  \\    /   O peration     | Version:  2412                                  |
|   \\  /    A nd           | Website:  www.openfoam.com                      |
|    \\/     M anipulation  |                                                 |
\*---------------------------------------------------------------------------*/
FoamFile
{
    version     2.0;
    format      ascii;
    arch        "LSB;label=32;scalar=64";
    class       volScalarField;
    location    "1636.5";
    object      p;
}
// * * * * * * * * * * * * * * * * * * * * * * * * * * * * * * * * * * * * * //

dimensions      [0 2 -2 0 0 0 0];

internalField   nonuniform List<scalar> 
808
(
-0.03314004832791914
0.04372762521298769
-0.01103399779693959
0.03782993449141267
-0.2954025029022577
-0.05581957756445333
-0.01576048944655254
-0.02413888824903043
-0.1942590843025514
-0.08260234219909354
-0.01078267827952194
-0.2509983060231408
-0.03071672683773696
-0.01419498187529405
-0.1224553958230112
-0.01425884470706276
-0.138706467698593
-0.01377842211817854
-0.0127373455905029
-0.05460607147244996
-0.008057158700076627
0.1165689166892709
-0.06357122404822368
-0.07039292457084231
0.174302579039971
-0.1006232569165922
-0.1502660532648518
-0.02048290432823476
-0.0176119472644997
-0.02553155083771112
-0.02040461777177386
-0.05734124198181558
-0.02271215222753311
-0.01693840665704985
-0.09828163213051308
0.3449444389409156
-0.04007387300464171
-0.01635890212603741
-0.02241610316952787
-0.02646838290630743
-0.08906397514013951
-0.1248149722690556
-0.05294909483157007
-0.02151721409044727
-0.0545028612062489
-0.04265081617984309
-0.01185489443154247
-0.1819870262714339
-0.02645597321125256
-0.2014681432255548
-0.01733049191165731
-0.06593360624902661
-0.06191129055438036
-0.01464069914085672
-0.1960281925465894
-0.02768168727136391
-0.01069890752102236
-0.01465775734248787
-0.09877089766965991
-0.03893674679795946
-0.111822546996565
-0.1239999882688522
-0.01458833742797239
-0.1275775903862751
-0.01765560428403722
-0.05272443203274917
-0.1620576776727246
-0.03535735766239637
-0.01539633002252343
-0.4361023977733715
-0.02605278034023962
-0.2971778650447747
-0.02126429523364429
-0.02123126961594276
-0.06286610526526414
-0.01822667249556983
-0.04165498994569523
-0.366479474903164
-0.03665396783671179
0.03862766698766785
-0.09237978769661474
-0.01671964361568421
0.05730821725010161
0.04609190451116643
-0.01757868021576398
-0.05128980319349056
-0.5364472386304683
-0.2292652870677923
-0.0511101256643295
-0.1137610677091648
-0.05543571173639889
-0.1307850549394638
0.03810947219823802
-0.02675001233495516
-0.06302516369092669
-0.119706732756247
-0.03819102086046672
-0.05207969276054187
-0.1145446477566679
-0.1381517955999515
-0.05323264145683627
-0.04639779033157001
-0.0533669089829196
-0.0439201496285001
-0.05678078711982632
-0.07576749950926306
-0.0396363226071246
-0.01063151065016015
-0.03949542764078183
-0.1219096534907133
-0.04953520871519042
0.08110837224602599
-0.04166650984142343
-0.007647801229098306
-0.02750371032852841
0.1809851868974789
-0.03788823045786089
-0.2647259218254444
-0.0208430598127332
-0.05247622541915701
-0.04326438729621753
-0.0497468252411413
0.01427056239715013
-0.04751092544998319
-0.03691978011702454
-0.2203267833848345
-0.03984754315874986
-0.004228697016149276
-0.07441793428246904
-0.07001401021276944
-0.1498470634819144
-0.02130705238990012
-0.07410337277876565
-0.04443935290074291
-0.02312075105383701
-0.01476120852921384
-0.005985354450612507
-0.007593831686429365
-0.05166862495440556
-0.04871651536579338
-0.2156645192339779
-0.05527398351099138
-0.008125798042710446
-0.0217342788587323
-0.1495568431647358
-0.002225505026881804
-0.07507338315599198
-0.02078860384902309
-3.000252252274253e-06
-0.01040140707023038
-0.03271734028477349
0.09297517625130534
-0.03773685965903431
0.2514155829664041
-0.2606143102900764
-0.1343174920039847
-0.03815217192923994
-0.09083786614711124
-0.009089729702349314
-0.1151165693025391
-0.1666116448438179
-0.2158534951978235
-0.1773269814714143
0.05716399950454112
-0.06411301863191582
-0.0206535874679539
-0.06596259542715012
-0.1704031888599828
-0.0229013338883239
-0.01872777221042221
-0.05083168465760642
-0.0210111249651612
-0.007669146284784312
-0.1057624200464979
-0.02369570627627457
-0.04392174274913578
-0.07133235470576256
-0.1590570413066798
-0.03294851309610549
-0.3831384081728131
-0.01792736175940505
-0.2283192518935752
-0.0432680439292351
0.03322912923017728
-0.1062668757962932
-0.01685298320497329
-0.04355380231062902
-0.1041588915207717
-0.01789445578777663
-0.09489882155541546
-0.203757245309492
-0.07089278715253892
-0.02423694719441744
-0.04683495867560718
-0.04178488219517688
-0.2013680635717368
-0.02249701996987501
-0.01938667064205685
-0.01125174736231849
-0.05772115992124507
-0.0495183264690939
-0.022697869982009
-0.02056914736556914
-0.2323977137045961
0.1267515015071598
-0.2080400420080989
-0.1878260169067932
-0.01171156645319945
-0.01123534940861771
-0.06634470459659214
-0.01036352381662268
-0.4904995796024274
-0.1264542606762675
-0.01972904814260943
-0.0005963791729252547
-0.02359237992206714
-0.2762060957126319
-0.2804151225655617
-0.007553480238025751
-0.01770287388026256
-0.00170698256802545
-0.3515520941068211
-0.02863097924213964
-0.02942799179099096
-0.01269258253225768
-0.01939338854207689
0.04829759536159484
-0.1256083337745853
-0.01429385479726481
-0.02096373508902806
-0.04575902617585727
-0.01842558346954879
-0.01644095181502995
-0.02355435270464496
-0.06816132848173181
-0.01096489316977779
-0.01889115300429072
-0.00899226875366866
-0.001331749078415388
-0.02929688873993699
-0.002142883207081429
-0.001936210056383248
-0.005679289828372626
-0.02548668587088867
-0.008101268561866803
0.001610630068840356
-0.004150453255653491
0.001314169450611151
0.002322117445481986
-0.008901575299500582
-0.1287770971708291
-0.002908454990040046
-0.0001776897698279086
-0.04722073195572789
-0.02140146056124748
-0.0235508390544757
-0.01402542253316729
-0.006228000604552338
-0.02116999534566066
-0.04046955498707968
-0.01519332435012195
-0.01266076564769765
-0.01147146283684725
0.006751002975623493
-0.009598579075433371
-0.01314949169161039
-0.01144286938154337
-0.01002539521998984
-0.01021603712167171
-0.01122385468026885
-0.01351854637920541
-0.2901107324280959
0.05861844342721049
-0.01532193449456398
-0.01520594475406265
-0.01235700468209759
-0.01225447828298695
-0.008233820390702909
-0.09896573336515077
0.01299079564839442
-0.0143517608398784
-0.01369279442056845
-0.0105513372398395
-0.05068592051609434
-0.008198244366321314
-0.01380548959844088
-0.01004648165572131
-0.002259999115163522
-0.01157062529670165
-0.01112347606909124
-0.02418611873806513
-0.0154731253301822
-0.01243567354161178
-0.013484131968907
-0.009721631069613662
-0.01288589833224527
-0.01089823045463522
-0.06017509614078058
-0.01350989025432285
-0.01226415602444775
-0.009228636776655339
-0.01543396212881082
-0.01398696629544915
-0.01566626240530301
-1.364794589405222
-0.1008637689093239
-0.01184232292565789
0.02481323942840196
-0.1609539023107218
-0.09319707267861567
-0.01227153795103847
-0.01423335327504346
-0.236265057820766
-0.02799871837381183
-0.01749642168794524
-0.01247035386728309
-0.02058891180818159
-0.01056993844084667
-0.0308132827170851
-0.4071789783270764
-0.01203853226231924
-0.01407898889380187
-0.004383419269985594
-0.01090906377646447
-0.009719413212554054
-0.01381678470884706
-0.007583439636413477
-0.02747834242994527
-0.01181551866958477
-0.1728693297744013
0.02055667057229267
-0.007302936361866443
0.004038212018023818
0.01185002998987771
-0.04921971703564176
0.02728238153103311
-0.01299514226833495
-0.1324238139106298
0.2829287836831722
-0.00824718722008479
-0.01360321279559695
-0.007895024106222955
-0.0332039318703836
-0.1262763467319611
-0.01305034003892451
-0.01190058181140504
-0.01765991735139399
-0.01350044443274413
-0.04177067514559873
-0.2209688590472022
-0.009090455597929448
-0.0440170597965401
-0.03818747366487756
-0.1810143722281543
-0.150326633559585
-0.1541048241814779
-0.2322062465601138
-0.002660758899041954
-0.02061895344411377
-0.01555304219177356
-0.01405484977383663
-0.03386410918270843
-0.02452879355926472
-0.01391826406893863
-0.01489793030611576
-1.067560813019803
-0.003021934470029351
-0.01331762534767071
-0.01796194051338957
-0.02057986222459631
0.005099848753548621
-0.01440144192386859
-0.02508133484331623
-0.1537824817209569
-0.01359673460021329
-0.02084623803585392
-0.0146797811941725
0.000536305441969976
-0.1780543061034968
-0.01249410388912286
-0.1581891486711928
-0.01536925128451965
0.005134376400140877
-0.01391208168013253
-0.02439059959954898
-0.01643394587419845
0.007398274164152474
-0.2647270541506588
-0.02686770226866966
-0.01697819996544972
-0.01672086572387072
-0.01113425732085869
-0.02915394734600497
-0.01365608297951758
-0.02124336367066052
-0.0203807344157862
0.008834155093182193
-0.09716726373182907
-0.02104144563127157
0.009662585785466159
-0.05833976479824928
0.1822006314748026
-0.1070257144177516
-0.3156508430321378
-0.02938701661900591
-0.02598864056408112
0.1514553630466949
0.09305074104998826
-0.00385507945579921
0.05385822554863408
-0.01507495250729012
-0.01314045376399808
0.002773861430830307
0.007378580190690669
-0.06450830733934791
-0.00437837500673137
-0.05568847482032172
-0.02337684199952871
-0.01567934214042063
-0.03650619485532164
-0.03293589898632648
-0.00670046984787068
-0.01452875225681432
-0.03640733877234241
0.03026287218782903
-0.03860550735689866
-0.01391671724170006
-0.120230942538066
-0.03073826184992632
-0.04020885850759301
-0.6672868415798919
0.01362637007944049
-0.01056228617959141
-0.005725127318584058
0.1876362894843004
-0.1032711989494709
-0.03610368005263015
-0.2412324253332652
-0.0150772493154267
-0.01598501395252649
0.07985541239821699
-0.1797499546474543
-0.231774065895953
-0.1844533632685396
-0.6747856897101663
0.01066576171147367
-0.01782003602884428
-0.01515001422202454
-0.09762866570614183
0.1188245761038477
-0.02193396157812764
-0.2388687613044454
-0.03649012289282338
-0.007057055052399724
0.2796719469008394
-0.01075138154703507
-0.09044080247465022
-0.1536985619839094
-0.004382155492584982
-0.04187840901902503
-0.04702503686457309
-0.1944470884216372
-0.007773968087189409
-0.03948821881639263
-0.003812891757852251
-0.5427728547572556
-0.1929013271958522
-0.1794465636495015
-0.02373629365269092
-0.009323972413409513
-0.06250156521343146
-0.05612437997447785
-0.01582414446080858
-0.07000479844248737
0.004894875699854136
-0.01746952584687477
-0.09471417395065254
-0.2784933286356635
-0.009934115708314191
-0.02466451047384381
-0.02117597027594851
-0.07681804190927183
-0.08858075165164793
-0.09019313751577224
-0.01130007329691479
-0.9054084632967095
0.1623873910289766
-0.08293815759807811
-0.2500754679829337
-0.04110516182507367
-0.009036801920787834
-0.2484410608505735
-0.1980660850696117
-0.03048722037486454
-0.1132693686829487
-0.01790281770718997
0.5629832433226658
-0.02540115538631826
-0.2117092853323921
-0.02485102867520855
-0.003738973806781982
-0.01080304023700724
-1.243697672790485
-0.1807857580350131
-0.2259321240719586
0.005224727643138125
-0.03979654275397033
-0.2330430033621878
-0.06747536086324418
-0.05242948735459519
-0.1468663244924427
-0.1801964677141938
-0.07043265250966117
-1.212351041356447
-0.1616189214979245
-0.544431385374763
0.08013008572513947
-0.006107605669058635
-0.02083207896436206
-0.04512963123035749
-0.03770140428642722
-0.02749443127452957
-0.1291429684654287
0.08175668843743582
-0.004256670060679387
-0.00990948193666358
-0.5599420310933942
-0.8468049016736332
-0.1737339410889326
-0.007535212367265996
-0.1217706224602282
0.0005140464093278519
-0.0004653703372669564
-0.002952765433350497
-0.06193283315684624
-0.2323685992378413
-0.01330463883813704
-0.1092522098276807
-0.1569199837979226
-0.01307861239574549
-0.03418391253991045
0.0297982046868664
-0.05914534696219595
-0.07255651906992465
-0.4909586542644633
-0.2241389211561548
-0.07943081363298925
-0.07615069089652653
-0.01920213397099326
-0.1100266500882198
-0.1671045516838852
-0.08272668547407808
0.02707785224467614
-0.08780983498488786
-0.0508736692113333
-0.01493933640347336
-0.1159953543575487
-0.2827441973409702
-0.06004604570677743
-0.01791799543277871
0.001500689919361893
-0.01023222861471141
-0.01044304317277994
-0.2391086708597856
-0.0139523950642015
-0.2157518457344991
-0.01079464427088726
-0.07327393766179656
-0.004127644511399377
-0.02327144364956709
-0.3946074371875726
-0.9315392566835182
-0.01122416792139804
-1.038679116538078
-0.5993893594006432
-0.01057529007212881
-0.661405102097529
-0.1885075360751212
-0.004906867742281358
-0.1224045638032788
-0.01706741015817263
-0.126155566491814
-0.06442798445932402
-0.07866570077850003
-0.005597457166326749
-0.003549102090323653
-1.347168017988684
-0.01143914038180922
-0.1869600735264715
0.001105924976351836
-1.005111694142439
-1.251256375736796
-0.07777107107357131
0.01593180226505406
0.1646586207272413
-0.004881800060341967
-0.02294468598271371
-0.00436482823836073
-0.2371270261599221
0.3654037954870756
-0.0425499554952762
-0.2151053263163586
-0.01530063620543848
-0.6507686494130961
-0.07167778383502653
0.1884969272138833
-0.3058908001116405
-0.05111716212615009
-0.07073661472609606
-0.01579712508351136
-0.02134746357442964
-0.5965988622050564
-0.1549542956737815
-0.09639965942892653
-0.1171842275929568
-0.5492418924774209
-0.04570371357681253
-0.9006387784459945
-0.0006038945324743677
-0.2452717471408958
-1.055741687399614
0.1656481532782113
0.2895081764752914
-0.1701671364614638
-0.1883196342029115
-0.215149576850044
-0.0658037404262127
0.02571528029472548
0.04550298525935999
0.004936172901449399
-0.1518107568582577
0.02623884628570466
-1.369182240996741
-0.08770405717157295
-0.4807453812203469
-0.3357211448065695
-0.2215124943115994
-0.1813752890680146
-0.0169833406702469
-0.01535048349253806
-0.09189515719111041
0.1739806801064985
0.3843240433169917
-0.2070130636259758
-0.1570972996307687
-0.2215850255227683
-0.06396420947672131
-0.1641739936006434
-0.1738731388299279
-0.1282793015273352
-0.1092863884126393
0.4644593207173803
-0.2849557465855923
0.4326974690496967
-0.5875512758444438
0.07347845610077862
-0.1871483837937799
-0.06833737564754984
-0.07831220565018249
-0.8965509031660263
-0.2168941837707924
-0.1935134984707728
-0.3564820643209513
-0.4680853770990497
0.5695831097006518
-0.2144937349132611
0.003089752806304203
-0.06693830043402688
0.3453554717582379
-0.03445071987265004
-0.1193193314913373
-0.1825579696065829
-0.06467883703794518
-0.01631327767781983
-0.1995737845664159
0.1963329810219289
-0.01259135341069105
-0.09932147102810453
-0.1773390085038329
-0.3192702202999448
-0.306942771362477
-0.08444625671029569
-0.009588944044598396
-0.07991462737679711
-0.6492388626672581
-0.6754144822108881
-0.3233286184321911
-0.05960072358981185
-0.04906917411416343
-0.02423944573969283
-0.07071174367324648
-0.05444557597902854
-0.3700024939345298
-0.9648686288952724
-0.008589854195263546
-0.0859033068694182
-1.148054742343593
-1.045554032518306
-0.1091830347099332
-0.04219948653237519
-0.06744487658363019
0.3885789590275113
-0.3384249038652428
-0.05122506868787394
-0.6070485075079601
-0.1386024449937142
-0.2474454780604249
-0.2149610506697019
0.4732080693301832
-0.6388357353231929
0.07665092511063067
-0.02823015278917333
-0.5719924338354576
-0.05499583182353208
-0.3667041955849795
0.1099441915659463
-0.1944983119403105
-0.06189384184604238
-0.1242442558305365
-0.3569071984395229
-0.08403202213551958
0.5153022876773347
0.08734145980429325
0.4694860670326879
-0.1240918661192606
-0.2081227949362102
-0.5073891882654035
-0.1351340908839553
0.02380073795807751
-0.05605567463197923
0.09944499251498909
-0.3031175113143693
0.2364606530254817
0.004661523148656757
-0.002567682473947684
-0.506592753367856
-0.1807989442632789
-0.1007395528453602
0.5811317091179453
0.1398769939667776
0.3435921812895904
0.2250424474179731
-0.5681490696883826
-0.2064617220032697
-0.2204963707651741
-0.2268499119190164
-0.06273161903130477
-0.6859716041649052
-0.1893305960369021
0.3041990545855233
-0.2008291255516104
-0.01123865586582004
-0.1608989336204927
-0.01228321172540455
-0.1719116034271841
-0.4490670765606833
-0.07643354058292542
-0.2078131814757991
-0.0776047736359871
-0.1104765708852866
-0.1306841514868189
-0.07238432629691371
-0.4384890436953178
-0.4093381711764899
-0.02349176195463805
-0.07821345931528038
0.3293007478563664
-0.2534150154165326
-0.1702456962444047
0.5241175005172304
-0.1922541017346363
0.02138082415508875
-0.4569962023759827
0.04996885846452338
-0.05905402642818979
-0.1535240654284475
-0.5942782257172907
0.1585149390650751
-0.5736607559653581
-0.5427062805355291
-0.1015193087333762
-0.5143386168463805
-0.035842307036852
-0.1570804972630023
-0.4157530020094775
-0.01603726249879947
0.2882639071875501
0.4898394571306282
-0.1686006168449279
-0.005135000581888576
-0.08273865499124068
0.5249871144024764
-0.03188799277202135
-0.4476148978384115
-0.03147783908797822
0.4616115599238236
-0.01786707707318201
-0.5524529029405518
-0.2401826822541912
0.1782521321145223
-0.3168616656260262
-0.1833281523339991
0.04782247857600781
0.03083682482108222
0.0569014017033628
-0.3059910155728711
-0.1596344255449767
0.4128073314979187
)
;

boundaryField
{
    FrontBack
    {
        type            empty;
    }
    Top
    {
        type            zeroGradient;
    }
    In
    {
        type            zeroGradient;
    }
    Bottom
    {
        type            zeroGradient;
    }
    Out
    {
        type            fixedValue;
        value           uniform 0;
    }
    circle
    {
        type            zeroGradient;
    }
}


// ************************************************************************* //
