/*--------------------------------*- C++ -*----------------------------------*\
| =========                 |                                                 |
| \\      /  F ield         | OpenFOAM: The Open Source CFD Toolbox           |
|  \\    /   O peration     | Version:  2412                                  |
|   \\  /    A nd           | Website:  www.openfoam.com                      |
|    \\/     M anipulation  |                                                 |
\*---------------------------------------------------------------------------*/
FoamFile
{
    version     2.0;
    format      ascii;
    arch        "LSB;label=32;scalar=64";
    class       volScalarField;
    location    "864.5";
    object      p;
}
// * * * * * * * * * * * * * * * * * * * * * * * * * * * * * * * * * * * * * //

dimensions      [0 2 -2 0 0 0 0];

internalField   nonuniform List<scalar> 
808
(
-0.03274786067201593
0.04381595238599312
-0.01132002777414651
0.03823228978784115
-0.2943568149032829
-0.05564959646880815
-0.0156181137315589
-0.02399847586762084
-0.1934097856644694
-0.08209537664606902
-0.0102625684527905
-0.2500404363879445
-0.03067112988148004
-0.01407397821259691
-0.1246377373175297
-0.01418930951403068
-0.1415645392459331
-0.01373667916680846
-0.01302108585001462
-0.05432822228679325
-0.007864107667169985
0.1163535463673601
-0.06374617900408074
-0.0699580277289194
0.1738839407386072
-0.1005004334326862
-0.1495392380437148
-0.02048348233190371
-0.01764508868509132
-0.02565473140286629
-0.02038573510187644
-0.05701249444000112
-0.02281690462055052
-0.01697028089100234
-0.09759476855824889
0.3452858391407218
-0.04001727172413831
-0.01653374056859466
-0.0224018550771476
-0.02650770103979225
-0.08847542662506006
-0.1240754924133469
-0.05299755377653723
-0.02132634487067634
-0.0553311903215426
-0.04284975705351431
-0.01194311520070448
-0.1810604170447941
-0.02638462866451646
-0.2004941925100297
-0.0171003587838864
-0.0654973589680873
-0.06200687074307768
-0.01510298715158642
-0.1965277374308988
-0.02762485915678376
-0.0109197856520022
-0.01532398129955725
-0.09819071631538469
-0.03881742768576305
-0.1093981556440148
-0.123327714743946
-0.01448594405972815
-0.1261064690953465
-0.01742742790064653
-0.05277800417390455
-0.1599342572666826
-0.03540545201401917
-0.01537463742112605
-0.4348293107409935
-0.02606841675122297
-0.2965136633656841
-0.02125591655891134
-0.02097471696045863
-0.06182626301885314
-0.01819282226130729
-0.04151002965647925
-0.3684160573715107
-0.03651504970364131
0.03793540377260345
-0.09278140919637688
-0.01674871747767564
0.05726146210230697
0.04659627987547961
-0.01752392916652918
-0.05108152660983907
-0.5351770818613606
-0.2299633165389734
-0.05085857964157579
-0.114103952914512
-0.05508810415581269
-0.1299455614086042
0.0378439850357677
-0.02701090974959632
-0.06312936956786352
-0.1167514982177111
-0.03822347924083677
-0.05243745617549205
-0.1137492567069246
-0.1359402325586994
-0.05308990232918846
-0.04624903019139086
-0.05309422813459799
-0.04377041639896936
-0.05667172806061841
-0.07589946069150399
-0.04051473327471701
-0.01086306829041834
-0.03942154115368817
-0.1211766533643188
-0.04946062922831028
0.08080015569228749
-0.04160177872997307
-0.008000184419433258
-0.02756560594465139
0.1811992086832807
-0.03771266555188969
-0.2638173540916803
-0.02071201871694093
-0.05216687143494513
-0.03934609965725246
-0.04975076063009311
0.01441950710544012
-0.04715616446791052
-0.03715038839813656
-0.2211734222495558
-0.03938695703628723
-0.004482568879730358
-0.07392752692527677
-0.07013356687803581
-0.1442355856209431
-0.02111103874445891
-0.07366884152706478
-0.0448017869712824
-0.02301633010358028
-0.01460879120551754
-0.006160289871894244
-0.007405468605543607
-0.05159004474385312
-0.04848393113105703
-0.2195760373707205
-0.05487663516471337
-0.008168134125427651
-0.0217198700973327
-0.1499365290175164
-0.002642242240204598
-0.07468043771928988
-0.02029811684769166
-0.0002381024917618271
-0.01095607267593399
-0.03269160316029629
0.09257205218940656
-0.03750420565186437
0.2512233650263914
-0.2655530920079475
-0.1345972454644308
-0.03801090385139858
-0.09091285807120569
-0.009326203444988452
-0.1153495632877934
-0.1686101449134428
-0.2195241847186652
-0.1740989164758881
0.05737123074456255
-0.06419608045068
-0.02059560948917178
-0.06576760520788802
-0.1651961837212446
-0.02289097009827949
-0.01849666686009853
-0.05051975967242682
-0.02130852307816023
-0.007696703160483172
-0.1048042284769229
-0.02354661678942109
-0.04352787403679189
-0.07146233517784906
-0.15804835775931
-0.0329712219137104
-0.382632900410962
-0.01791654750649915
-0.2288679719292196
-0.04303555024206712
0.03370005448834271
-0.1069748454839736
-0.01701922037767739
-0.04357703891264271
-0.1030902778641264
-0.01778813375116343
-0.09405306732846466
-0.2061481662417284
-0.07047911237947951
-0.02411250511503837
-0.0463917736614323
-0.04158377400536377
-0.2031128702494874
-0.02238089347997514
-0.01930991907933531
-0.01123218474251711
-0.05793222026922801
-0.04917140466732289
-0.02254134981478229
-0.02065076805299068
-0.2331085835787186
0.1265903149564457
-0.2087556252201407
-0.1863077716832795
-0.01174581380390405
-0.01120377504731662
-0.06628772160611607
-0.01056881205102883
-0.4916763169246502
-0.1223769974474542
-0.01958855929174238
0.0001153634791071803
-0.02361136275659862
-0.2754634524620374
-0.2817210497540145
-0.007343494143297093
-0.01725665033254853
-0.001141954583649357
-0.3529513373258211
-0.02853484076227607
-0.02933142563802441
-0.01263005576130997
-0.01944157993887543
0.04811420818918444
-0.1188379623801446
-0.01443501271893427
-0.02094477797001517
-0.04597440209610153
-0.01837649120305913
-0.01635643004597689
-0.02355319100996038
-0.06834742131020737
-0.01099216543547452
-0.01892885888370341
-0.008869000837431213
-0.001012780473879438
-0.02935047864566194
-0.002072437407522614
-0.001965135386451499
-0.00562819713049485
-0.02552053367513354
-0.008018765009034659
0.001505214179081528
-0.004254301959334388
0.001434403208258143
0.002422407801807721
-0.009090279968310775
-0.132115032724775
-0.002908210907557117
-0.0007842592190545262
-0.04755348808018838
-0.0215090411691482
-0.02353194951475953
-0.01411806264065729
-0.006249346932880095
-0.02107963632850198
-0.04078232478018069
-0.01485669678917261
-0.01281787147520396
-0.01123249595590602
0.008404426307685835
-0.009776774647132662
-0.01252718621145158
-0.01157422533747803
-0.01018970532728872
-0.01039008870256386
-0.01189913973167098
-0.01358335531648557
-0.2922772226207151
0.05831020204517532
-0.0157425069284701
-0.0146309058240778
-0.01251938296642607
-0.0118502434927617
-0.008425224396135494
-0.09724364642177535
0.01400767961518792
-0.01400082594400458
-0.01360030726716337
-0.01049591417100368
-0.05031460445880808
-0.00930474731293237
-0.01354804969276338
-0.01047331207535518
-0.001282600304502159
-0.01176878615120399
-0.01209050725131858
-0.0242060007039598
-0.01529842312152601
-0.01219754829282137
-0.01359925368505241
-0.008494831472802063
-0.01221604924504562
-0.01129805888583363
-0.0603666169918914
-0.01368072689071107
-0.01181486942535396
-0.009187640715588957
-0.01531416284354255
-0.01370856699195072
-0.01560152099987241
-1.360239431951207
-0.1010746814501944
-0.01254413017488837
0.02666436905920603
-0.1597216521811081
-0.09227124192926492
-0.01241643773521181
-0.01415087386672372
-0.2291379320542261
-0.02755382637797914
-0.01698119098969018
-0.01242280476286866
-0.02038280550093787
-0.0100292886358232
-0.03082972133398348
-0.4057674909567428
-0.0122515399248721
-0.0140906040703199
-0.004420457232802127
-0.01134889071490662
-0.01059051763549447
-0.01383083758085314
-0.006210708927476216
-0.02729587595393796
-0.01192277720860505
-0.175639137363095
0.02059575553703306
-0.007251434487431593
0.004445562877881174
0.01267020367920897
-0.04921827191405557
0.02703260950204222
-0.01334977218676321
-0.1312033231186212
0.2831769421052931
-0.007925332567549324
-0.01378632763455901
-0.007911578876677962
-0.03274733925511262
-0.1265969366692857
-0.0123992885933718
-0.01189520823259313
-0.01727337354960869
-0.01349314312952081
-0.04177254974697941
-0.2217195650426824
-0.008972332461626738
-0.04423579776650379
-0.03825039731668309
-0.1812450682869118
-0.151890575208309
-0.1430468956367995
-0.2199860162862292
-0.00329060462831704
-0.02063297430688924
-0.01493111026766906
-0.01370179670601983
-0.03388967699244434
-0.02456278998400568
-0.01396505289833711
-0.0148387241245411
-1.064337261380033
-0.004589094473824502
-0.01312091375693989
-0.01804887020230131
-0.02431517522509586
0.001880638709904437
-0.01490680287832245
-0.02465577865177201
-0.1467506641640694
-0.01359192058266255
-0.02116814165315841
-0.01446848396303478
-0.001862484390571047
-0.1778206150432761
-0.01240743708792663
-0.1548616236107138
-0.01546102074821516
0.00171677990227637
-0.01410485415133602
-0.02431274309371259
-0.01606800052477868
0.006513283848918135
-0.2649914543976565
-0.02675853403351237
-0.01665700434985553
-0.01128065792952743
-0.01088047492296466
-0.0291098959193229
-0.01372232238778558
-0.02106159289330841
-0.02043412704431126
0.01229868435243199
-0.09656650144433054
-0.02104730657030454
0.009598152190817482
-0.06014586551227592
0.1856702910660988
-0.1074476070624854
-0.3136058194394524
-0.0301993556772402
-0.02596162002491651
0.1522266571572204
0.08337018390442426
-0.00393434161711053
0.05272081136645354
-0.01497117343182583
-0.01326429047021827
0.002745027668456534
0.00693093877320032
-0.0641445924855637
-0.004976057153697658
-0.05557654262083316
-0.02305439794496529
-0.01570507067150255
-0.03652261182660527
-0.03292586350590983
-0.006687120716372299
-0.01476372999728007
-0.03595357558512688
0.0319744021605172
-0.03865337452108663
-0.01406554194663727
-0.1205664277012196
-0.03094489603346877
-0.04019989242674404
-0.664976836906489
0.01675872810682158
-0.01021548097035859
-0.005961179011855696
0.1795125010305398
-0.1006617792584623
-0.03599254607637264
-0.2401870654326248
-0.0153801360907401
-0.01601299377858274
0.08389439350497425
-0.178138638743078
-0.2362114166615987
-0.1848636979075687
-0.6727742440146223
0.005631710539686489
-0.01767295721528542
-0.01588484232069946
-0.09356447937229993
0.119082207461664
-0.02142149856898645
-0.2296149489543623
-0.03642147621003858
-0.006891009085296515
0.2816011027228549
-0.01085140625175981
-0.08986777548716013
-0.1543684917036486
-0.003581712246073374
-0.04181523478087107
-0.05197103709787489
-0.1956297762179622
-0.007670787697626426
-0.03907285569512608
-0.003367527932395426
-0.5407233334980057
-0.1907843208432922
-0.1801304298330579
-0.02355781647415496
-0.009025366283657266
-0.06269347051075343
-0.0558885459772949
-0.01455477394132687
-0.07016345017973923
0.005402481470325127
-0.01752023222088769
-0.09342424070672314
-0.279235051121345
-0.008993910398404704
-0.02500300639592967
-0.02121861909679014
-0.07696683286071994
-0.08817529365624797
-0.09035885238466196
-0.01177844521231678
-0.9040997609214122
0.1629507829804418
-0.08117492175068204
-0.247548817329651
-0.040983662665127
-0.009307572163015801
-0.2531099617720804
-0.2016949010074535
-0.03002964065851965
-0.1169013531829841
-0.01901146336616691
0.5637800520520982
-0.02535995275023627
-0.213554968411928
-0.02477799704008536
-0.004444984023573814
-0.01104497731690014
-1.238673977296178
-0.1788385935080345
-0.2243708980629279
0.005173685794669864
-0.03995620481946181
-0.2362055326927135
-0.06759071250416983
-0.05246585159951644
-0.1479784870713829
-0.1765909886655426
-0.07060165500140758
-1.209137196389651
-0.1583891019616437
-0.5451615584386942
0.0804373462775204
-0.005727110783393982
-0.02080445590803539
-0.04532298755413328
-0.03718285521622795
-0.0276021237530114
-0.1276938886893843
0.08220982772549357
-0.003107345166301249
-0.01002375362648322
-0.5600842715480361
-0.8450585343397926
-0.1722913454084012
-0.007830094976965695
-0.1254333345099476
0.0003872331460853449
-8.114803572196387e-05
-0.002770195201632609
-0.06157230897913789
-0.2312163757633308
-0.01323570360216397
-0.1123532152790123
-0.1583829501132153
-0.01308891211573888
-0.03409996548720482
0.03053753873659137
-0.05919400318009679
-0.0727456417566323
-0.4900073764624189
-0.2085719585272985
-0.0788439286522838
-0.07657798881169417
-0.01924787956497272
-0.1140782171890293
-0.1639543672169711
-0.08124301203030837
0.02478751154175346
-0.08806632493899957
-0.05111171665016229
-0.01489777461288704
-0.1123785868413271
-0.2831699957584039
-0.06036444875578511
-0.01790803810406329
6.609316343414624e-05
-0.01013283101069921
-0.01048098029932923
-0.2370736129058089
-0.01445175525049945
-0.2143857534673437
-0.01053221295627525
-0.07581062702425384
-0.004239448957925893
-0.02328811257279785
-0.3953910413190109
-0.9346517401149405
-0.0112538927603985
-1.034822183785563
-0.5982485291212721
-0.01043589518851635
-0.6665051027372292
-0.190280657861805
-0.005441672862651834
-0.1227640225998383
-0.01676795045009696
-0.1268642497291673
-0.06394232636488485
-0.08298778213339912
-0.005343254545441148
-0.002284041820212013
-1.35289863043527
-0.01157675232248158
-0.1806894753227348
0.001086060433034832
-0.9999067937893162
-1.255864026333424
-0.07707860940392869
0.01495505570949775
0.1647532599948797
-0.004618689081557609
-0.02298200024198921
-0.004277668936823621
-0.2381074604739552
0.3653014320099876
-0.0425478851038185
-0.2157585052370866
-0.01516100643457457
-0.6457366752707475
-0.07109727039254883
0.187473302575158
-0.3049472240188445
-0.05107700365414636
-0.07078409824328216
-0.01582305145948188
-0.02140677029695337
-0.5980663766505264
-0.1541737559338398
-0.09428793463772751
-0.1180697856230497
-0.546445136414668
-0.04564503878636863
-0.8964368771301552
0.0002273232348958321
-0.2459583615266829
-1.061260802863118
0.1621705995260103
0.2879709352979858
-0.1746555362359235
-0.1866281444875374
-0.2191474878359991
-0.06541351689791375
0.02459199353111124
0.04216929184960085
0.003905255172383712
-0.1556934924747111
0.02665873132312203
-1.374489299459673
-0.08783215118783916
-0.4825310620463764
-0.3379164454511396
-0.2206536668576489
-0.1823562236976799
-0.01695689511918072
-0.01538493057179772
-0.0950585514652782
0.1760587545365355
0.3837538870829228
-0.1974502380575518
-0.1525816805097142
-0.214722660491122
-0.06401780592484714
-0.1611388520055661
-0.1734354391991896
-0.1285904419793532
-0.1135570370526457
0.4624519517495467
-0.2850336191444118
0.4347316938713097
-0.5861220926372364
0.07426960171127134
-0.1868849559416411
-0.06843566109841297
-0.07923794039200374
-0.8997013630020572
-0.212666790673204
-0.194791441572329
-0.3572342260333802
-0.4692921375254114
0.5694420073530122
-0.2183931369259237
0.003645886970622645
-0.06610201897466179
0.3468226588244507
-0.03389334053856861
-0.1247606309532264
-0.1835918657840775
-0.06411900639907631
-0.01636918407183992
-0.2019546738722911
0.1994452140322774
-0.01275736293698559
-0.0995122855293977
-0.1786787793049053
-0.3231813057177705
-0.3057107908529563
-0.08124336164280876
-0.009695325629995071
-0.08281136660217642
-0.6449869461551798
-0.6797918776289986
-0.3236677704372107
-0.05964998357040797
-0.04856000587058955
-0.02429276069589891
-0.0709861795743367
-0.05387589451017639
-0.3706195006429833
-0.9694628289813645
-0.009190298855995557
-0.08611547914994409
-1.152717040320454
-1.049506363728308
-0.1116505646778633
-0.04282529483540898
-0.06701582189503261
0.3871307625976285
-0.3366640206626024
-0.05002462157997866
-0.6096484757498408
-0.1352276267661838
-0.246210259534739
-0.2166991759756349
0.4727049194250109
-0.6412316314388172
0.07871128207070825
-0.02821436083894133
-0.5738599071425395
-0.05548484374639502
-0.3695349107704247
0.1114854785920959
-0.1949793679668986
-0.06197144146006025
-0.1270776798158945
-0.3541366760176348
-0.0814914705776737
0.5165222465077499
0.08787533592448173
0.4684880580171643
-0.1132207891451236
-0.2092223267182239
-0.5067816351625574
-0.1369962914836967
0.02330502116786563
-0.05624662947160144
0.09806651107241965
-0.2992048831735819
0.2365875787644749
0.003323960452028891
-0.002535211128445326
-0.5043142287811901
-0.1797558233208619
-0.09309216643756438
0.5814260738904833
0.140292411927907
0.3412429612061601
0.2249934718630898
-0.5711405299297407
-0.1944992664468575
-0.2246420683962725
-0.2199856907575051
-0.06289051133869826
-0.6832769920725545
-0.1869070384139462
0.3033259174801041
-0.1899095575337038
-0.01144489179385915
-0.1585392642791083
-0.01262070343707964
-0.1705427772117642
-0.4502776223200473
-0.07583976894947575
-0.2103938401706195
-0.07467289489037224
-0.1024747685458801
-0.1329597054417564
-0.0717995425467834
-0.438540272172656
-0.4068113193026919
-0.02217502202433189
-0.07882468649275771
0.3316845693383752
-0.2540843012277487
-0.1708089182556843
0.5230456839630647
-0.1934827119296773
0.02279626519422298
-0.4585329365106788
0.05314815452572468
-0.05853618178587766
-0.1432499559813218
-0.5963272918950198
0.1563978434868066
-0.5710571719668307
-0.5448125559361773
-0.09963996967691922
-0.5168338023216295
-0.03578521093134143
-0.1532648815975131
-0.418418086208999
-0.01597820061202354
0.2893343779828963
0.4901581322166503
-0.1683663764348854
-0.004435475144719341
-0.09011259465288553
0.5248917960558662
-0.0318269614045526
-0.4489016651493219
-0.03154116976925905
0.4626363965017369
-0.01827879985819228
-0.5542347159107858
-0.2444748398857083
0.1793802765542615
-0.3178586501709754
-0.1843191043659087
0.04581579538723034
0.03047639006678108
0.05754707267039002
-0.3068537649281382
-0.1611173974932684
0.4128712679830231
)
;

boundaryField
{
    FrontBack
    {
        type            empty;
    }
    Top
    {
        type            zeroGradient;
    }
    In
    {
        type            zeroGradient;
    }
    Bottom
    {
        type            zeroGradient;
    }
    Out
    {
        type            fixedValue;
        value           uniform 0;
    }
    circle
    {
        type            zeroGradient;
    }
}


// ************************************************************************* //
