/*--------------------------------*- C++ -*----------------------------------*\
| =========                 |                                                 |
| \\      /  F ield         | OpenFOAM: The Open Source CFD Toolbox           |
|  \\    /   O peration     | Version:  2412                                  |
|   \\  /    A nd           | Website:  www.openfoam.com                      |
|    \\/     M anipulation  |                                                 |
\*---------------------------------------------------------------------------*/
FoamFile
{
    version     2.0;
    format      ascii;
    arch        "LSB;label=32;scalar=64";
    class       volScalarField;
    location    "28.2";
    object      p;
}
// * * * * * * * * * * * * * * * * * * * * * * * * * * * * * * * * * * * * * //

dimensions      [0 2 -2 0 0 0 0];

internalField   nonuniform List<scalar> 
808
(
0.127709
0.0193299
0.015476
0.127883
-0.175448
0.0210445
0.00786491
0.0336076
-0.0893047
-0.0141933
0.0336695
-0.100719
0.0291563
0.0154261
-0.310962
0.0270477
-0.329252
0.023754
0.0209972
0.012073
0.0300703
0.383632
0.0711051
0.00925317
0.459856
-0.158812
-0.0317854
0.00883456
0.0181366
0.0138842
0.0132359
0.0243376
0.0213045
0.0108024
-0.0725722
0.639421
0.016901
0.0178026
0.025324
0.0192139
-0.0437701
-0.0354241
0.0372901
0.0256844
-0.135717
0.0877684
0.0189492
0.0387585
0.0192876
-0.127615
0.00948583
0.0287943
0.0451336
0.00923765
-0.0982074
0.0160901
0.00961675
0.0421517
-0.00563238
0.0104144
-0.265865
0.0275256
0.0399118
-0.164898
0.0347248
0.0476841
-0.216062
0.0243468
0.0157544
-0.223649
0.0273361
-0.248882
0.0270121
0.0237519
0.211475
0.0111442
-0.00937103
-0.08232
0.0112779
0.313018
-0.110305
0.018683
0.0347592
0.289622
0.0105112
-0.0271972
-0.29166
-0.119753
0.0330553
-0.20249
0.0463444
-0.078383
0.25548
0.158232
0.0416662
-0.2325
0.0240972
-0.0899055
-0.0900358
-0.200352
0.0170664
0.00189729
0.0460319
-0.0236016
-0.121136
0.0581527
-0.138582
0.01431
0.0141678
0.0575157
-0.0818185
0.335419
0.0219213
0.0519136
0.0220595
0.464365
0.0166222
-0.207229
0.0219533
0.0638654
-0.279505
0.0380572
0.0176905
0.0659835
0.111921
-0.0622792
0.120399
0.0619298
0.0439163
0.0681974
-0.217476
0.0317337
-0.0438333
0.123508
0.0257526
0.0134724
-0.00959099
-0.00254517
0.0239015
0.0123782
-0.32044
0.0574027
0.0020039
0.0243812
-0.0385925
0.0403748
0.105051
0.168185
-0.0125288
0.010996
0.0216786
0.345584
0.0353956
0.542054
-0.288315
-0.106355
0.0203977
-0.17748
-0.00542779
-0.122098
-0.249171
-0.310335
-0.219581
0.0231345
0.0621357
0.0239714
0.0263934
-0.218708
0.0209074
0.0395662
0.0459735
0.158913
0.0407392
0.148457
0.0192184
0.0797174
0.0705784
-0.120939
0.0272918
-0.272129
0.0345025
-0.156311
0.021011
0.27962
-0.293711
0.117062
0.0241789
-0.148006
0.0280202
-0.0945399
-0.292351
-0.0696894
0.0210323
0.094334
0.0204845
-0.312798
0.0192188
0.0388797
0.0115102
0.0782581
0.0739665
0.0345842
0.0227104
-0.242155
0.382111
-0.300335
-0.252261
0.0130686
0.0283654
0.0226368
0.0161844
-0.317856
-0.237974
0.0183412
0.018072
0.0220931
-0.252836
-0.0490543
0.024545
0.0435918
0.0200276
-0.100376
0.0329581
0.0341737
0.00438425
0.0240776
0.125336
-0.265298
0.0903536
0.0159278
0.117035
0.0212954
0.0249315
0.0126707
-0.0847761
0.0315507
0.0147635
0.00462284
0.0192904
0.0177783
0.00440291
0.000683867
0.0057163
0.00990372
-0.00132792
0.00541092
-0.0102934
-0.00220386
0.0117267
0.012756
-0.252469
0.000717376
-0.0168038
-0.149088
0.00416833
0.0145583
0.0245182
0.00241283
0.0277962
0.126471
0.0612708
0.0115006
0.00932218
0.0689491
0.0210367
0.0148409
0.0273829
0.0397445
0.0425762
-0.0246788
0.0404713
-0.314001
0.27764
0.00196904
-0.00383106
0.021842
0.00691512
0.0126961
-0.224727
0.300308
0.0377006
0.0352566
0.0370363
0.0942707
-0.0804773
0.0178191
-0.0045926
0.0706593
0.00857978
-0.0265884
0.0269627
0.0312003
0.0518122
0.0452784
0.0379512
0.0178241
0.00970812
0.0565198
0.040605
0.0356322
0.0357805
0.0263026
0.0545972
0.0146288
-0.425904
-0.094281
-0.0119338
0.0493141
-0.144538
-0.232112
0.0155716
0.0261807
-0.256647
0.140259
0.171294
0.0217416
0.0193883
0.0637737
0.00497036
-0.166148
0.0263949
0.00363608
0.0243305
-0.020992
-0.0226414
0.026322
0.0520953
0.00609916
-0.00433487
-0.264264
-0.0029886
0.0311277
0.0660609
0.110218
0.0145745
0.233024
-0.00952993
-0.138368
0.560624
0.0312709
0.00460288
0.0254608
-0.0262137
-0.0544156
0.090737
0.0259821
-0.00245704
0.0318033
-0.0326287
-0.273935
0.0691717
0.104976
-0.0589467
-0.266209
-0.252346
-0.26148
-0.249372
0.0599028
0.0284252
0.0124961
-0.0294407
-0.0198485
0.00991259
0.0304886
0.00408667
-0.420034
0.0663875
0.0424036
0.0203404
-0.372442
0.0262385
-0.00250961
0.123137
-0.250601
0.0547862
-0.0292281
0.0785788
-0.0118929
-0.258853
0.040071
-0.327002
0.0192088
-0.0460849
0.0204235
0.0137877
0.0151926
-0.0187994
-0.260363
0.0122738
0.00883764
-0.016603
-0.0060049
0.0012993
0.0388999
-0.00701517
0.000378723
-0.0217538
0.0565585
0.0249087
0.0148209
-0.337547
-0.0808205
0.0555786
0.0334814
-0.147449
-0.0180912
0.443644
-0.304763
0.00528774
-0.180368
0.0296562
0.0416656
0.0225742
-0.0931989
0.00508775
0.0466432
-0.0626486
0.00615539
-0.0028148
-0.00645337
-0.0101311
-0.010242
0.0231175
0.128187
-0.0568668
0.0174245
0.0138131
0.0140506
-0.0721628
0.0281507
-0.305929
-0.0441245
0.0334216
-0.00697812
-0.245377
-0.289891
-0.00377839
-0.0433069
-0.0429365
0.0282118
-0.0530513
-0.182175
0.222949
-0.234734
-0.3726
-0.360372
-0.0595504
-0.0952351
-0.282287
0.364877
-0.0175579
-0.265027
0.0152913
0.00679724
0.596028
0.00834625
0.0294948
0.0399442
-0.00861576
-0.00179801
-0.235513
-0.313746
0.0704611
0.0745683
0.0369619
-0.202448
-0.222946
-0.244593
0.0173818
0.00121922
0.0930043
-0.0117058
-0.0198575
0.0796832
-0.00623828
0.0329261
-0.178887
-0.325886
-0.0278853
-0.101843
0.0265663
0.00852449
0.0892437
-0.0479985
-0.0229451
-0.37623
0.468561
-0.269807
-0.26513
-0.0316137
-0.0251675
-0.276806
-0.272214
0.132801
-0.258093
-0.228492
0.87627
0.0194095
-0.275075
0.0107688
-0.113479
0.0256326
-0.37927
-0.290727
-0.230093
-0.000444078
-0.296298
-0.278568
-0.00760305
-0.0143287
0.096568
-0.223306
0.0305655
-0.41425
-0.342879
-0.404517
-0.223712
-0.0297761
0.0172802
0.106285
0.141778
-0.037325
-0.255706
0.322658
0.0898143
0.0190865
-0.351281
-0.410425
-0.244536
0.0403869
-0.268613
0.121659
-0.0463255
-0.0564169
-0.25666
-0.16925
0.0168629
-0.252373
-0.32361
0.0116504
-0.00278239
-0.0357991
-0.00364507
0.0351421
-0.300271
-0.26177
-0.0907901
0.0970072
0.0288865
-0.256168
-0.3046
-0.277399
-0.300815
0.0369904
0.0997254
0.00915176
-0.264053
-0.320118
0.100486
0.0304405
-0.216025
0.0289974
0.0205012
-0.350982
0.0295948
-0.201571
0.00872913
-0.298846
-0.0247313
-0.000841574
-0.383367
-0.473383
0.00426048
-0.393567
-0.373883
0.0210632
-0.0785092
-0.282902
-0.0166735
-0.252833
0.0418532
0.075454
0.0771481
-0.259359
0.0763594
-0.00845244
-0.462367
-0.010612
-0.279691
0.0220312
-0.249286
-0.524871
0.124625
0.272816
0.456401
0.0174999
0.00528433
0.000391031
-0.259085
0.654896
0.0227802
-0.229048
0.035417
-0.0185637
0.101766
0.489204
-0.388311
-0.0298015
-0.0333404
0.0401198
0.0146433
-0.470025
-0.259076
-0.269928
-0.318032
-0.214741
0.0100798
-0.290513
0.119432
-0.282379
-0.320154
0.51229
0.592711
-0.350415
0.146591
-0.279596
-0.0132857
-0.106904
0.405879
-0.0627897
-0.24954
-0.0183907
-0.521525
-0.0225423
-0.206337
-0.0258842
-0.331522
-0.299472
0.00075264
0.00765978
-0.246901
0.475975
0.683449
-0.236564
-0.316733
-0.249772
-0.0433242
-0.323257
-0.293068
-0.192527
-0.247201
0.758863
-0.357044
0.764433
-0.333705
0.351529
-0.236699
0.00603791
0.174534
-0.515977
0.260104
-0.29603
-0.327528
-0.353918
0.880051
-0.27168
0.230049
0.173962
0.664276
0.143752
-0.364424
-0.316953
-0.186364
0.0146616
0.0825529
0.549292
0.0175794
-0.0224565
-0.296067
0.114293
-0.076942
-0.329564
0.0275582
-0.340746
-0.104988
-0.162674
-0.285899
0.00941759
0.12018
0.00218193
0.0757161
0.131685
-0.351531
-0.365467
-0.0244502
0.0108818
-0.476099
-0.526007
0.173659
0.194268
0.10235
0.673794
-0.0361867
-0.220027
-0.392383
-0.31799
-0.0186534
0.0794061
0.771546
-0.463849
0.405045
-0.00532862
-0.443476
0.153987
-0.0811537
0.411251
-0.164778
0.0188214
-0.254756
-0.0319006
0.230051
0.831071
0.353563
0.766728
-0.27053
-0.323632
-0.335541
0.165189
0.27159
0.0642969
0.383419
0.175455
0.511856
0.276397
-0.00634117
-0.135959
0.0559492
-0.307372
0.895143
0.429257
0.653044
0.523661
-0.273722
-0.252714
-0.287887
-0.257956
0.0504977
-0.336729
0.140197
0.602721
-0.258609
0.01941
-0.254567
0.188671
-0.345389
-0.384243
-0.160647
-0.312831
-0.318785
-0.279422
-0.262845
-0.11946
-0.333464
-0.0840422
-0.133691
0.146708
0.678801
-0.230763
-0.237663
0.834308
-0.24004
0.314815
-0.244465
0.41978
0.105618
-0.240844
-0.411143
0.445099
-0.217354
-0.331077
0.221426
-0.282943
-0.021393
-0.312654
-0.124557
0.033715
0.590765
0.793947
-0.306944
0.2495
-0.293072
0.833029
-0.00721789
-0.325232
-0.0256883
0.781126
0.210044
-0.332411
-0.292929
0.478444
-0.220295
0.033632
0.351791
0.257809
0.318177
-0.262092
-0.343573
0.702244
)
;

boundaryField
{
    FrontBack
    {
        type            empty;
    }
    Top
    {
        type            zeroGradient;
    }
    In
    {
        type            zeroGradient;
    }
    Bottom
    {
        type            zeroGradient;
    }
    Out
    {
        type            fixedValue;
        value           uniform 0;
    }
    circle
    {
        type            zeroGradient;
    }
}


// ************************************************************************* //
