/*--------------------------------*- C++ -*----------------------------------*\
| =========                 |                                                 |
| \\      /  F ield         | OpenFOAM: The Open Source CFD Toolbox           |
|  \\    /   O peration     | Version:  2412                                  |
|   \\  /    A nd           | Website:  www.openfoam.com                      |
|    \\/     M anipulation  |                                                 |
\*---------------------------------------------------------------------------*/
FoamFile
{
    version     2.0;
    format      ascii;
    arch        "LSB;label=32;scalar=64";
    class       volScalarField;
    location    "33";
    object      p;
}
// * * * * * * * * * * * * * * * * * * * * * * * * * * * * * * * * * * * * * //

dimensions      [0 2 -2 0 0 0 0];

internalField   nonuniform List<scalar> 
808
(
0.121437
0.0228347
0.0529756
0.121318
-0.215673
0.0178742
0.0102543
0.0342285
-0.123675
-0.0291749
0.0392311
-0.13746
0.033023
0.0161885
-0.20942
0.0236181
-0.209874
0.0138013
0.0392591
0.0102601
0.0427325
0.388748
0.0828841
0.00204787
0.464451
-0.126312
-0.0542562
0.00846955
0.00924722
0.0229698
0.00997659
0.0197288
0.0287413
0.00454477
-0.092387
0.632894
0.0221345
0.0275336
0.0293346
0.0282328
-0.0584069
-0.0540176
0.046326
0.0297368
-0.0969775
0.0994217
0.0273427
0.0156661
0.0281033
-0.165698
0.0108538
0.0188523
0.0558228
0.00176868
-0.0787202
0.0258758
0.0111533
0.0422064
-0.0242332
0.0190958
-0.296156
0.00679225
0.0396794
-0.194462
0.0370719
0.0574893
-0.285432
0.0340247
0.0332656
-0.264526
0.033246
-0.293566
0.0315681
0.023601
0.190771
0.0258642
-0.00154233
-0.0601122
0.0177876
0.32311
-0.0843233
0.0244654
0.0427882
0.276217
0.0281666
-0.0188015
-0.338675
-0.0997104
0.0346603
-0.146818
0.0406218
-0.100801
0.263264
0.168701
0.0523211
-0.321364
0.035638
-0.0670094
-0.112165
-0.272541
0.0171797
0.00722604
0.044213
-0.0132047
-0.113561
0.0694713
-0.0947511
-0.0214233
0.0232605
0.0336315
-0.0552637
0.343823
0.0300745
0.0154546
0.0299545
0.459213
0.0207422
-0.250439
0.0268475
0.0601379
-0.319368
0.0463182
0.0227976
0.061203
0.124384
-0.043639
0.110101
0.0684277
0.0307796
0.0787013
-0.326401
0.0371869
-0.0494496
0.137091
0.0294111
0.0206886
-0.00147754
-0.00940764
0.0294934
0.0139938
-0.286619
0.0504268
0.0387891
0.0322394
-0.0187073
-0.0408098
0.0990984
0.160055
-0.146516
-0.0403971
0.0310225
0.35307
0.0357765
0.543744
-0.27639
-0.0783169
0.0204064
-0.13635
0.00796758
-0.09167
-0.288311
-0.286182
-0.292235
0.0268379
0.0722917
0.0316156
0.0283582
-0.302105
0.0267874
0.0429739
0.0442122
0.170536
-0.0571376
0.127509
0.021617
0.0729251
0.0815523
-0.155822
0.0321214
-0.318806
0.0407013
-0.12794
0.0238239
0.268089
-0.141383
0.128423
0.0325558
-0.166706
0.0363921
-0.115865
-0.267251
-0.0720497
0.0257325
0.0849338
0.0234607
-0.263605
0.0235066
0.0383402
0.0143147
0.0911533
0.0694556
0.0375698
0.0305998
-0.28563
0.383779
-0.269471
-0.289933
0.0112565
0.0697018
0.0306299
0.0211074
-0.365575
-0.359356
0.0214869
0.0381164
0.0276348
-0.299808
-0.0298059
0.0336307
0.0452262
0.00749251
-0.0807386
0.0338283
0.0342574
0.00710395
0.0307812
0.137032
-0.410252
0.0216146
0.0113449
0.128662
0.0147194
0.0173053
0.00893332
-0.0572229
0.0668352
0.0199372
0.0122636
0.0298328
0.0271674
0.0183829
0.0086127
-0.00625239
0.0127052
0.00318759
-0.00154886
0.000322476
0.00826221
-0.00672366
-0.0254645
-0.296667
0.00159837
-0.032497
-0.128781
-0.00701933
0.0270647
0.0197064
-0.000153077
0.0249826
0.139409
-0.0128713
0.00958926
0.0166183
0.0861349
0.0441274
0.00604773
-0.0022562
0.0120664
0.0119909
0.0165301
0.0585395
-0.360634
0.286646
0.00915484
-0.0652088
0.0257857
0.00862131
0.0151428
-0.280093
0.281527
0.0194903
0.0773432
0.0115413
0.0889747
-0.135559
0.00849445
-0.0362462
-0.000658683
-0.0628343
-0.0114494
0.0305715
0.0183921
0.0329619
0.0467693
-0.0104168
0.00814217
0.0563334
0.069203
-0.0357655
-0.0397511
0.016264
0.0106163
0.0493904
0.0228443
-0.481075
-0.0698218
0.0582646
-0.0199852
-0.181735
-0.112108
-0.0353417
0.0172979
-0.296446
0.131495
0.159658
0.0264654
0.0212337
0.0160837
0.00534357
-0.204541
0.0251491
-0.00128599
0.0334667
-0.00707575
-0.0263928
0.032662
0.0277733
-0.0017137
-0.0283756
-0.278978
0.0110227
0.046326
0.112286
0.100024
0.0222833
0.241673
-0.0369826
-0.167993
0.554114
0.101792
0.00756157
0.0324678
-0.054715
-0.0354744
0.0633924
0.0327557
-0.0160003
0.0201577
-0.0284485
-0.237333
0.0650961
0.117225
-0.0230464
-0.270055
-0.296607
-0.389603
-0.297372
0.051474
0.0320451
0.0173232
-0.048368
-0.0265928
0.00713841
0.0227687
-0.00116333
-0.473791
0.0761438
0.0281015
0.042953
-0.325554
0.0563732
-0.0312858
0.115692
-0.31123
0.0927793
0.00949868
0.0968183
0.0601856
-0.283555
0.0454019
-0.303664
0.0265981
0.033214
0.0449239
0.020255
0.0291867
-0.120831
-0.305468
0.0130763
0.00533248
-0.187978
0.00662624
0.0155768
0.0330335
-0.0166428
0.0210068
-0.211572
0.0397717
0.0388807
0.0241977
-0.438683
-0.124084
0.069071
0.000747792
-0.0971168
-0.0346225
0.429617
-0.19722
0.0238158
-0.0660698
0.0376583
0.0491617
0.0287437
0.00769547
0.0015751
0.100453
-0.0503555
-0.00222234
-0.00437698
-0.00668684
-0.0102152
-0.00918441
0.0377951
0.119206
-0.110846
0.0284118
0.00546061
0.0298764
-0.022445
0.0353836
-0.35412
-0.166788
0.00152307
0.0152426
-0.124925
-0.383277
-0.00925913
-0.074819
0.0259501
0.0301973
-0.11294
-0.235208
0.251094
-0.276732
-0.425159
-0.246873
-0.0518215
-0.00915512
-0.4217
0.358201
-0.0614173
-0.298458
0.01853
0.0736566
0.573947
0.0047272
0.0120233
0.0572911
-0.116518
0.00194476
-0.203342
-0.259678
0.0128914
0.0670151
-0.0397717
-0.243383
-0.279308
-0.187379
0.0186245
0.0244491
0.103855
-0.00859663
-0.0662419
0.0911115
-0.100443
0.0320882
-0.199673
-0.30541
-0.0485034
-0.0309402
0.0298049
0.0228384
0.0819853
-0.0298664
-0.00616154
-0.427832
0.458386
-0.321028
-0.287401
-0.0185397
-0.00625124
-0.281707
-0.266058
0.123213
-0.302653
-0.119746
0.869954
0.0266188
-0.317322
0.0209504
-0.00283441
0.0570754
-0.434817
-0.274383
-0.280371
-0.0158014
-0.233049
-0.322784
0.00830281
-0.00144351
0.113958
-0.277064
0.0434964
-0.467821
-0.322315
-0.384377
-0.014775
0.0219684
0.0321419
0.117241
0.12999
-0.00546246
-0.280291
0.309166
0.00552285
-0.00852176
-0.401096
-0.463421
-0.294417
0.0763457
-0.3128
-0.0057301
-0.00689205
-0.0561284
-0.248776
-0.2128
0.0293933
-0.29188
-0.270854
0.0163007
0.00870171
-0.108359
0.0106915
0.0484908
-0.348634
-0.316385
-0.107707
0.109758
0.0316688
-0.30092
-0.281182
-0.423326
-0.0873587
0.0541273
0.112214
0.00336374
-0.419248
-0.297374
0.113735
0.0247282
-0.0604262
0.0418648
0.0289025
-0.330988
0.0525607
-0.251591
0.0307803
-0.168429
0.0178699
0.00273659
-0.363582
-0.45062
0.000402987
-0.447781
-0.426332
0.0407339
-0.0465862
-0.269414
-0.0333567
-0.286684
0.0388004
0.0919803
0.0645601
-0.131235
-0.0254058
0.0330756
-0.430768
0.00301182
-0.304806
0.0263482
-0.301951
-0.498768
0.104927
0.286948
0.451894
0.0351612
0.00399185
0.00278997
-0.303393
0.656345
0.0301293
-0.182845
0.0215331
-0.0647536
0.0869756
0.499659
-0.369791
-0.0195529
-0.0193557
0.0237378
0.0190285
-0.447821
-0.273047
-0.336824
-0.270238
-0.261454
0.0141534
-0.342705
0.0472024
-0.250484
-0.287176
0.534834
0.607205
-0.286755
0.119307
-0.274051
-0.0134147
0.103671
0.429969
0.0551753
-0.290186
0.128267
-0.492567
-0.00396297
-0.183051
-0.00340228
-0.315493
-0.261452
0.00310727
0.00589476
-0.287675
0.449395
0.689306
-0.307709
-0.291431
-0.299369
-0.030086
-0.305028
-0.272187
-0.136784
-0.28909
0.773994
-0.338448
0.746751
-0.384346
0.335429
-0.283436
0.0208218
0.189212
-0.490947
0.22221
-0.243834
-0.302382
-0.329409
0.884835
-0.275196
0.214795
0.154021
0.648413
0.128218
-0.270801
-0.275627
-0.192253
0.0219018
0.106936
0.520792
0.020115
-0.00292991
-0.276363
0.142951
-0.110845
-0.434255
0.0479546
-0.197551
-0.152379
-0.13125
-0.333131
0.0198946
0.10832
0.0221161
0.0894577
0.116701
-0.329537
-0.33388
0.0567902
0.0286948
-0.446135
-0.498225
0.198238
0.206433
0.0949834
0.688138
-0.0702599
-0.105987
-0.364054
-0.297168
-0.0502446
0.0989233
0.777515
-0.43629
0.378541
0.014189
-0.419119
0.166015
-0.0533834
0.38956
-0.130644
0.0307774
-0.293175
-0.0732222
0.196474
0.81892
0.341605
0.777138
-0.36146
-0.299294
-0.3853
0.184569
0.280553
0.0761911
0.398593
0.136372
0.507503
0.292849
0.0733025
-0.17589
0.0313299
-0.235641
0.894605
0.420354
0.671035
0.522398
-0.244746
-0.326873
-0.274722
-0.287018
0.0624726
-0.387297
0.106068
0.612508
-0.33695
0.012504
-0.287351
0.199686
-0.330734
-0.362103
-0.174813
-0.283737
-0.295462
-0.338432
-0.302773
-0.133959
-0.383419
-0.125381
-0.0993015
0.160579
0.657354
-0.19962
-0.279549
0.843974
-0.280733
0.29212
-0.21995
0.387828
0.0929585
-0.348333
-0.385302
0.465077
-0.262639
-0.304997
0.194247
-0.25565
-0.0040411
-0.291787
-0.0979264
0.0511071
0.576525
0.789563
-0.285944
0.234047
-0.299072
0.833544
0.00777885
-0.299439
-0.0044929
0.770025
0.220562
-0.306778
-0.27289
0.460379
-0.195085
0.0517527
0.371471
0.266651
0.303865
-0.233884
-0.267813
0.698957
)
;

boundaryField
{
    FrontBack
    {
        type            empty;
    }
    Top
    {
        type            zeroGradient;
    }
    In
    {
        type            zeroGradient;
    }
    Bottom
    {
        type            zeroGradient;
    }
    Out
    {
        type            fixedValue;
        value           uniform 0;
    }
    circle
    {
        type            zeroGradient;
    }
}


// ************************************************************************* //
