/*--------------------------------*- C++ -*----------------------------------*\
| =========                 |                                                 |
| \\      /  F ield         | OpenFOAM: The Open Source CFD Toolbox           |
|  \\    /   O peration     | Version:  2412                                  |
|   \\  /    A nd           | Website:  www.openfoam.com                      |
|    \\/     M anipulation  |                                                 |
\*---------------------------------------------------------------------------*/
FoamFile
{
    version     2.0;
    format      ascii;
    arch        "LSB;label=32;scalar=64";
    class       surfaceScalarField;
    location    "33";
    object      phi;
}
// * * * * * * * * * * * * * * * * * * * * * * * * * * * * * * * * * * * * * //

dimensions      [0 3 -1 0 0 0 0];

oriented        oriented;

internalField   nonuniform List<scalar> 
1171
(
-0.945235
0.945235
0.778821
-1.08945
0.310626
-0.297853
-0.689843
0.987696
0.0547651
-0.0674613
-0.280386
0.347848
-0.778821
0.0926718
0.68615
0.938679
-0.214618
-0.724061
0.853576
-1.07145
0.217871
-0.360227
-0.0399779
0.400205
-0.00881
0.611099
-0.602289
-0.485213
0.88836
-0.403147
-0.427688
1.035
-0.181428
0.240809
0.0872845
-0.328093
0.996613
0.0383908
0.248515
-0.0077063
1.03935
-0.0427401
0.619694
-0.917547
-0.784681
0.603576
0.181105
0.297046
-0.782259
0.556672
-0.91341
0.356738
-1.07949
0.671218
0.408267
-0.643775
0.634965
0.028216
-0.247152
0.218936
0.0359147
-0.620959
0.585044
0.467062
-0.50704
-0.830363
0.87062
-0.0402573
0.99523
0.0441234
0.907349
-1.06363
0.156281
1.01976
-0.0245326
-0.702353
-0.0823286
1.27528
-0.84506
-0.430223
0.189399
-0.0874157
-0.411183
0.498598
-0.273076
0.187969
0.0851074
-0.606375
-0.483072
0.975183
-0.0678342
-0.0227709
0.886563
-0.863792
0.532405
0.742879
0.523684
0.0175173
0.449545
-0.792463
-0.105112
0.897575
0.570484
0.235026
-0.805509
0.0897259
0.530133
-0.619859
-0.508762
-0.570723
-0.379079
-0.684551
0.0261644
0.248858
-0.275022
-0.952833
-0.026097
0.97893
0.379292
0.0209124
0.830883
0.107796
-0.600338
-0.0434368
0.0341549
-0.826618
0.101327
0.919028
-1.02036
-0.400641
0.0248185
0.375822
-0.706387
-0.246447
-0.695063
0.79639
0.705915
0.182446
-0.584772
0.986226
-0.812253
-0.173973
-0.162865
0.0505361
0.112329
-0.460357
-0.046683
-0.263787
0.969701
-0.00204484
0.436803
-0.434758
-0.481356
1.05184
0.715017
-0.820128
0.407673
-0.0789745
-0.328698
0.780688
-0.780688
-0.884504
0.0405778
-0.320964
-0.702085
0.679314
-0.0338598
-0.147122
0.180981
0.900771
-0.0142076
1.04015
-0.805121
0.226605
-0.323577
0.0969721
0.964202
-0.13332
-0.671525
-0.0420411
0.713566
0.146662
-0.22934
0.0826774
0.796903
-1.01152
-0.437661
0.309278
0.128383
0.660751
-0.624836
0.873364
-0.396056
-0.477307
0.494284
-0.694606
0.0349685
0.659637
0.158693
0.652373
0.0555832
-0.707956
0.137514
-0.0969359
-0.508636
0.107996
0.0333345
-0.896632
0.863298
-0.533674
-0.758454
0.0561014
0.503738
-0.0541927
0.276899
-0.834405
0.557505
0.42416
0.57584
0.595614
-0.561459
-0.405628
-0.0158032
0.421431
0.554474
0.226214
-0.645656
0.735382
0.092555
0.889575
0.00295279
-0.674478
-0.763626
0.79696
0.610332
0.0833221
0.371263
-0.454585
-0.1554
0.516279
0.0138541
0.880045
-0.641581
-0.238464
0.654512
0.331714
-0.434193
0.671472
-0.58815
0.409445
0.147227
-0.0518744
-0.786482
-0.13807
0.924552
-0.130123
-0.650565
-0.613044
0.361001
0.252043
0.654876
-0.651924
0.313988
1.01503
0.0251125
-0.763626
-0.0882883
-0.0745764
0.715017
0.780056
-0.780056
0.840531
-0.825767
-0.0147641
-0.453749
0.877909
-0.189956
-0.31868
0.764532
-0.671747
-0.0927854
-0.841726
0.055244
0.11413
-0.714468
0.820128
-0.975528
-0.209573
0.220491
-0.0109179
0.12328
-1.00189
0.878608
0.549469
-0.0257849
-0.290055
0.59449
-0.304435
-0.662397
0.785677
-0.157377
0.64619
-0.934293
0.288103
1.18022
-0.774812
-0.405411
0.728182
-0.0709018
0.0105638
-0.00688756
-0.00367625
-0.801891
-0.954679
0.264836
-0.702085
0.569988
-0.54517
0.128854
0.673235
-0.802089
0.77839
0.166845
0.491562
0.508438
-0.0104547
-0.695874
0.706329
0.863465
0.0165802
-0.728182
0.79696
0.182375
-0.429527
-0.0478084
0.0365555
0.0112529
0.663928
-0.430133
-0.233794
0.68615
-0.0348153
-0.308489
0.550157
0.11377
-0.0231429
-0.000319081
0.023462
0.00798422
0.00257959
0.139896
-0.21887
-0.937433
0.0131468
-0.140472
-0.0696768
0.115138
0.788053
0.741436
-0.165595
0.60402
-0.475166
-0.163715
0.39032
0.637284
0.0488654
0.232535
-1.0583
-0.975528
0.325099
0.679314
-0.164081
0.0169591
-0.8012
1.03949
-0.238294
0.475742
-0.0999197
0.792396
0.305394
0.210667
0.0378483
-0.680536
0.680536
0.225219
0.672356
-0.0296527
0.466455
0.468946
-0.0227521
-0.0250563
0.532567
0.0169019
-0.662397
0.569356
0.195176
0.005048
-0.0119356
-0.637284
0.192839
0.846655
0.0429852
-0.744018
0.701033
0.757956
-0.820527
0.0625702
-0.77839
-0.0331394
0.0468308
-0.0136914
0.0865899
-0.126607
-0.103183
0.229789
-0.00552626
-0.0176166
0.800558
-0.757573
0.865624
0.122072
-0.387602
-0.468213
0.855815
-0.00201274
0.00201274
0.204687
0.407335
0.572935
-0.98027
-0.202006
-0.554079
0.756085
-0.0210027
0.201984
0.379723
-0.233061
0.925592
-0.518257
0.731408
0.943041
-0.370106
0.189767
0.785677
0.604249
0.230456
0.640164
-0.650565
0.319464
-0.092379
0.0373821
0.0549969
0.950096
-0.182703
-0.767393
-0.561508
0.536976
0.546251
-0.561508
-0.604249
0.536976
0.0150948
0.83167
0.0339533
-0.554474
0.465759
0.0887157
0.534755
0.614729
-1.14948
0.57316
0.352432
0.551239
0.58271
-1.13395
0.585484
0.357557
0.465759
-0.526812
-0.452427
-0.712202
-0.708549
-0.261058
-0.00699995
0.00699995
0.727796
0.481386
-1.18994
0.708841
-0.337577
-1.14836
0.373544
-0.680208
0.433761
-0.038121
-1.0187
1.05682
0.45138
-0.0072507
0.957347
-1.08266
-1.05699
0.0695675
0.987424
0.166593
-0.244575
0.0779825
0.707091
-0.774925
0.930479
-1.03959
0.109108
0.110037
-0.751618
-0.174172
0.967087
-0.792915
-0.905802
1.01584
-0.778747
0.489773
0.288974
-0.6527
0.000621581
0.652079
0.00313299
-0.00514574
0.424126
0.152185
-0.983142
0.830956
-0.780012
0.769558
1.1293
-0.00725043
-1.12205
0.0723099
-0.0233784
0.44481
-0.362704
0.0391275
0.972583
-1.0107
-0.530628
-0.570697
-0.180921
-0.179595
-0.967632
-0.0719552
0.490644
0.113376
-0.255651
0.422244
-0.668337
0.668959
0.477307
-1.02595
-0.913052
-0.0813815
-0.223981
0.711603
-0.487622
0.0891892
-0.75461
0.577566
0.180391
-0.0432653
1.00061
1.08541
0.939018
-1.01097
0.0467014
-0.0467014
-0.0746788
-0.0785018
-0.166073
0.342203
-0.0171032
0.175852
1.0898
0.0256954
-0.0312217
0.656969
0.343031
0.796956
-0.606375
-0.756256
-0.670324
-0.496719
0.496719
-0.210612
-0.110352
0.627559
-0.963772
0.336213
-0.4619
-0.55833
0.338902
-1.02345
-0.979696
1.0888
-0.779064
0.598143
0.663424
0.212721
-0.876144
-0.38135
-0.185259
0.868266
-0.683008
-0.110105
0.0186669
0.00114561
-0.0198125
0.00432503
-0.0828268
0.966461
0.450481
-0.198069
-0.252412
0.528463
0.75044
-0.52522
0.0151352
-0.288212
0.096807
0.706249
-0.803056
-0.360029
-0.0446307
0.139855
-1.00812
0.240722
-0.751051
0.14413
0.729973
-0.874103
-0.934845
0.183794
0.730799
-0.77543
0.228032
-0.354638
-0.500771
0.11942
0.369146
0.707298
-0.0358259
-0.0064004
0.0064004
-0.00731903
-0.0456266
-0.0467524
-0.0173015
0.042997
-0.387395
0.346692
0.725811
-0.837769
0.111958
-0.737544
0.881674
0.805139
-0.0743396
-0.740401
-0.194444
-1.1741
0.0212724
0.025429
-0.290588
-0.914573
-0.832505
0.402282
-0.249269
0.369386
-0.120118
-0.430255
0.139667
0.493359
0.711734
-0.0472555
-0.0224213
0.888695
0.513607
0.157615
-0.671222
-0.277111
-0.153144
0.00127726
0.0173896
0.774201
-0.912271
0.00533866
-0.00533866
-0.692169
0.773915
-0.0817466
-0.532762
-0.125415
-0.700895
0.0164137
0.689915
-0.0541421
-0.886154
-0.259659
0.349446
-0.0897871
0.806764
-0.694806
0.348494
0.245211
-0.593705
-0.140372
-0.729898
-0.144205
-0.178562
-0.243245
0.470642
-0.517325
0.138356
0.763339
-0.901695
0.494284
-0.269422
0.0201538
-0.212213
-0.0310316
0.591344
-0.0900379
-0.501306
-0.288574
0.309684
-0.0211107
0.525051
0.18379
0.0752408
-0.314981
0.17271
0.142271
0.0672572
-0.155545
-0.337558
0.144956
0.085462
-0.230418
0.972129
-0.32123
-0.211532
0.552636
0.341842
-0.539911
0.408773
-0.408773
-0.199688
-0.400025
-0.210046
-0.400025
-0.719769
-0.851469
0.179722
-0.487303
0.758618
0.0461746
0.155186
0.552112
0.108641
0.119932
0.0102557
-0.130187
-0.137858
0.706029
-1.03368
0.565471
0.0170405
0.0344083
-0.0514488
-0.757347
-0.17883
-0.525467
0.683082
-0.529453
-0.00463059
-0.026401
-0.345801
-0.0795548
0.0795548
0.048858
-0.00202716
0.141204
0.213841
-0.680237
0.15477
0.0544226
0.473546
0.526454
0.844799
0.0067679
0.0459611
-0.052729
-0.297925
-0.588229
-0.506009
0.116718
-0.121152
0.00443425
-0.160932
-0.408718
-0.107255
0.79717
-0.595137
-0.162211
0.0459055
-0.0177041
0.131637
-0.335499
-0.200356
-0.191083
-0.0277875
-0.469979
0.419904
0.0500751
0.0245046
0.294993
-0.865716
-0.526851
0.659312
-0.878477
0.738104
0.443077
-0.0371826
0.0632037
-0.0260211
0.186868
-0.632591
-0.0064817
0.639073
-0.891457
0.646005
-0.720684
0.0551205
0.00677233
-0.00677233
-0.299846
0.435071
0.0097382
-0.0231765
0.0299444
0.574506
0.414799
-0.653264
0.013379
-0.00134332
-0.00505708
0.00472224
-0.00472224
-0.451715
0.635505
0.0163272
-0.0163272
-0.780997
-0.00796012
0.0110931
-0.460742
0.615512
0.499884
-0.581631
0.0701584
-0.0701584
0.0412438
-0.0663001
0.0109011
-1.10199
0.696576
-0.571833
-0.00514574
0.604636
0.00321635
-0.607852
-0.70625
0.111113
-0.314538
-0.0117643
0.326303
-0.0210704
-0.0261851
-0.605392
-0.0271988
0.025429
0.00550414
-0.000165478
-0.0022221
0.0022221
-0.388604
0.158186
-0.467934
0.134192
0.662764
-0.11911
0.00754601
-0.00754601
0.508514
0.0867444
0.00878508
0.0186567
-0.000423495
0.670452
-0.583707
-0.846181
0.634649
-0.136762
0.3349
0.815189
-0.00731903
-0.0976746
0.085739
-0.655303
0.539593
-0.205996
-0.101614
-0.0278269
-0.026567
0.0286595
0.485848
-0.088097
-0.413209
0.723897
0.00227771
0.00296937
-0.00296937
-0.259684
-0.174763
-0.568963
0.615138
-0.140365
0.506393
-0.191536
0.81123
0.889823
0.00550414
-0.685815
0.581334
-0.0296153
0.00305714
0.0265582
0.659154
0.0966936
-0.0124145
0.0693664
-0.0569519
0.0101924
-0.0101924
-0.758018
0.0234569
-0.0442684
0.0629251
-0.0856386
0.0856386
-0.00134332
0.000226977
0.792833
0.0538221
-0.315476
-0.0932418
-0.519292
0.0162902
-0.0670558
0.0670558
-0.0114852
0.0824567
-0.0824567
0.0277386
-0.0277386
-0.358623
-0.0755697
0.237644
0.0716346
0.0569854
-0.736858
-0.0621022
0.159043
0.023331
-0.241947
0.0824141
-0.0824141
-0.466639
-0.0506863
0.227327
-0.00839017
0.00328203
-0.664317
0.649222
0.059556
-0.0710412
-0.015495
-0.0508051
-0.0122983
-0.158989
0.171287
-0.147046
-0.207592
-0.0811139
0.0811139
0.053665
-0.053665
-0.0269331
-0.0937035
0.120637
-0.0254104
-0.191601
0.00643353
-0.0114906
-0.177053
0.335239
-0.0258898
0.438459
0.0100571
0.0134048
-0.0518632
0.0518632
-0.727166
0.315706
-0.12594
-0.207282
-0.0220574
-0.0198978
0.0231798
0.192279
0.0375099
-0.00302177
0.00259828
0.0865791
0.0301385
0.0569498
0.102094
-0.0375026
0.0150813
-0.00236929
0.00549435
0.00300683
0.000637258
-0.00364409
-0.00431269
0.0123348
0.0268446
-0.0268446
0.0494686
-0.044122
0.044122
-0.189994
0.0188992
0.0312209
-0.0768943
0.0175462
0.0786948
-0.0786948
0.242354
-0.237943
0.0908965
-0.0661756
-0.171767
-0.0142108
0.0142108
0.408016
0.251621
-0.522339
-0.0804838
-0.0406681
0.542208
-0.0409054
-0.0601647
-0.474339
0.103316
-0.150771
0.168577
-0.0178062
-0.0485563
0.0485563
0.918505
-0.587311
-0.00234185
-0.00197084
-0.00608375
-0.289183
-4.25267e-05
0.00452471
-0.0451431
-0.626835
0.569979
-0.646496
0.014058
0.101451
0.0151927
0.0241246
-0.156855
-0.332442
0.255548
-0.0537535
0.0268204
0.173885
0.1358
0.192142
0.262973
-0.24778
0.00284135
-0.115298
-0.219047
0.0663873
-0.0094375
0.161158
-0.137033
-0.0686178
0.155197
-0.401285
0.123127
-0.105581
0.0599282
-0.473137
0.173102
0.181138
-0.249756
0.00931307
-0.180142
0.180099
0.00371932
0.151478
-0.0277948
0.0478025
0.460712
0.0126338
0.0139295
0.003039
0.036358
-0.236853
-0.20406
0.588658
0.165218
0.0621082
0.0727891
-0.0645564
0.0874379
-0.0608797
-0.0305381
0.165103
-0.151045
0.042589
-0.0138325
-0.106731
-0.0286642
0.0576703
0.253071
-0.0312625
0.0366329
-0.307512
-0.00728591
0.220266
0.140641
0.175066
0.0555765
0.0947468
0.0541112
0.520395
-0.00601338
0.107485
0.0399756
0.0684629
-0.108438
-0.270718
-0.196217
0.02445
-0.220067
0.283062
)
;

boundaryField
{
    FrontBack
    {
        type            empty;
    }
    Top
    {
        type            calculated;
        value           uniform 0;
    }
    In
    {
        type            calculated;
        value           uniform -1;
    }
    Bottom
    {
        type            calculated;
        value           uniform 0;
    }
    Out
    {
        type            calculated;
        value           nonuniform List<scalar> 10(1.1244 1.06157 1.16463 0.937916 1.19744 1.06611 1.20918 1.02023 0.608462 0.61007);
    }
    circle
    {
        type            calculated;
        value           uniform 0;
    }
}


// ************************************************************************* //
