/*--------------------------------*- C++ -*----------------------------------*\
| =========                 |                                                 |
| \\      /  F ield         | OpenFOAM: The Open Source CFD Toolbox           |
|  \\    /   O peration     | Version:  2412                                  |
|   \\  /    A nd           | Website:  www.openfoam.com                      |
|    \\/     M anipulation  |                                                 |
\*---------------------------------------------------------------------------*/
FoamFile
{
    version     2.0;
    format      ascii;
    arch        "LSB;label=32;scalar=64";
    class       volVectorField;
    location    "33";
    object      U;
}
// * * * * * * * * * * * * * * * * * * * * * * * * * * * * * * * * * * * * * //

dimensions      [0 1 -1 0 0 0 0];

internalField   nonuniform List<vector> 
808
(
(0.896597 -0.0103784 0)
(1.02001 -0.0314545 0)
(1.17733 0.120431 0)
(1.06711 0.0111033 -2.55838e-21)
(1.48588 -0.289714 0)
(0.953247 -0.0277997 0)
(1.14942 -0.0547516 -2.26958e-21)
(1.1562 -0.0334226 0)
(1.36867 -0.229923 2.46555e-20)
(1.23778 -0.0884202 -7.50583e-21)
(1.06201 -0.072108 7.88982e-21)
(1.39528 -0.259105 0)
(1.02349 -0.0459677 0)
(0.748198 -0.02712 0)
(0.902314 0.0309696 1.44526e-20)
(1.10981 -0.0456402 0)
(0.784228 -0.0252048 -3.88894e-21)
(1.01809 -0.0478605 -7.2418e-23)
(1.09513 0.0672794 0)
(1.11449 0.00626578 0)
(1.13532 -0.0815383 -1.10118e-20)
(0.931367 0.122612 1.13234e-19)
(1.07387 0.0121905 -1.53517e-20)
(1.17256 -0.0173119 0)
(0.947359 0.17341 0)
(1.31059 0.0480903 -2.2735e-20)
(1.28847 -0.170358 6.24725e-21)
(0.943492 -0.0227232 -3.1198e-21)
(1.10212 -0.0337049 0)
(1.03783 0.0436126 -3.94628e-22)
(0.984485 -0.0299668 2.94227e-24)
(1.12216 -0.0047736 0)
(1.05909 0.00663136 0)
(1.06787 -0.0231714 2.09494e-21)
(1.31369 -0.0572121 8.47574e-21)
(0.741472 -0.123656 1.11918e-19)
(0.880587 -0.0337417 -9.18361e-21)
(1.02458 0.0119473 1.54146e-21)
(1.20785 0.0429935 -4.24746e-21)
(1.10087 0.00297851 0)
(1.26663 -0.0421134 -1.5547e-20)
(1.28026 -0.124027 0)
(1.01156 0.00295855 -9.64048e-21)
(1.09991 -0.0489462 9.99757e-21)
(1.17095 0.0626302 0)
(1.01 0.0153402 -2.15255e-20)
(0.997395 0.0262386 2.3458e-21)
(1.26051 -0.250249 2.4278e-21)
(1.17209 0.0349758 -9.14645e-21)
(1.42505 -0.177281 -3.56208e-20)
(1.13114 -0.0733267 4.67242e-21)
(1.14755 -0.0694558 0)
(1.11924 -0.00145117 8.62052e-21)
(1.10706 0.00271862 0)
(1.30355 0.226447 4.06288e-21)
(1.06393 0.027998 -3.52338e-21)
(1.15921 -0.00966114 0)
(1.10838 0.0435776 6.42294e-21)
(1.24203 -0.0840805 8.05694e-21)
(1.12774 0.0315845 -8.301e-22)
(-0.299911 0.2614 0)
(1.21911 -0.21719 -5.13318e-21)
(1.1115 0.0233367 0)
(1.45216 -0.0463935 -2.92649e-20)
(1.08235 -0.0311597 -1.15293e-20)
(1.04341 -0.0290958 -9.69387e-21)
(1.41181 -0.135453 3.39766e-20)
(0.664518 0.0167181 0)
(1.08464 -0.0760254 0)
(1.45978 -0.361647 0)
(0.906781 0.029606 -2.89965e-22)
(1.26816 -0.146456 -3.89407e-20)
(1.02038 0.0487602 0)
(1.04346 -0.0342181 -3.66316e-21)
(1.1321 -0.341002 -5.8189e-20)
(1.11168 -0.0745768 -1.22977e-20)
(1.12799 0.0288293 1.81933e-22)
(1.31372 0.482162 2.52457e-20)
(1.1025 -0.0526442 0)
(1.0111 0.271785 -1.86673e-19)
(1.31187 0.0523011 1.16825e-20)
(0.744526 0.0230042 0)
(0.844402 0.0270469 -1.18329e-20)
(0.969847 -0.114183 4.32767e-21)
(1.08655 -0.0531593 9.72032e-21)
(1.17621 0.0208929 1.12905e-21)
(1.29786 -0.24331 0)
(1.34132 0.26776 0)
(1.08065 0.00799777 -1.57803e-20)
(1.34667 0.0743639 2.44158e-20)
(1.07996 -0.012438 1.33029e-20)
(1.33005 -0.114597 -1.40408e-21)
(0.965538 0.0255549 1.76025e-20)
(1.00427 -0.0219508 0)
(1.10963 0.020911 1.91881e-21)
(1.42673 -0.0235142 -9.34151e-20)
(0.770441 0.0196756 -4.37475e-21)
(1.31482 0.0138471 0)
(1.33979 -0.0721943 0)
(1.45692 -0.107049 -5.02655e-20)
(1.11005 -0.061529 -3.48602e-21)
(1.11507 0.0166007 -8.27839e-23)
(0.942627 0.0225422 1.19079e-20)
(1.16627 0.029828 -2.13897e-22)
(1.29802 0.0667872 -2.78116e-20)
(1.00394 0.00503192 1.50778e-20)
(1.3937 0.0364308 0)
(0.791355 -0.175873 0)
(1.0846 0.0262114 7.52738e-21)
(1.21036 -0.21771 -7.92897e-21)
(1.24027 0.0543088 7.60149e-21)
(1.04379 0.0441579 -1.2476e-19)
(1.14529 0.0361605 -2.9031e-21)
(1.24106 -0.0626423 1.76975e-21)
(0.799194 0.0113494 0)
(0.917441 -0.0514153 7.70316e-20)
(1.13346 0.0256143 -6.44413e-21)
(1.45693 -0.274716 -1.73506e-20)
(1.11813 -0.0262552 -8.63839e-21)
(0.929332 0.0191315 2.34693e-21)
(-0.157702 0.153898 0)
(0.861276 -0.0151277 2.224e-21)
(0.78672 0.0227949 0)
(1.05758 0.00506166 -9.73887e-23)
(1.01088 0.0277718 0)
(1.30075 0.311329 6.98062e-21)
(1.03615 -0.0542375 -3.2924e-20)
(1.29285 -0.0410256 1.5457e-21)
(1.15126 -0.050277 0)
(1.09345 -0.0220033 0)
(0.670208 -0.102078 0)
(1.12605 -0.0290547 -5.04093e-21)
(1.24637 -0.0384476 8.65661e-21)
(1.06454 0.110799 -3.48064e-20)
(0.859615 -0.0152021 0)
(1.09189 0.0244773 -1.79178e-21)
(1.19975 0.218684 -3.48531e-22)
(1.25799 0.107992 2.13069e-21)
(0.989263 0.0271264 5.10554e-21)
(1.11643 0.0122226 6.93996e-23)
(-0.037192 -0.0403959 0)
(1.096 -0.0163649 -1.47614e-20)
(1.1629 0.196864 2.48578e-21)
(0.723319 0.0220089 -5.15617e-21)
(1.24898 0.1521 2.79416e-21)
(1.13835 0.0920949 -3.0803e-21)
(1.04505 0.0167145 1.75263e-20)
(0.992006 0.028813 0)
(1.20202 0.0633515 -2.41283e-20)
(0.990814 -0.0766212 0)
(0.945667 0.0292763 1.07098e-20)
(0.968725 0.27501 1.49336e-19)
(0.966181 0.0320609 0)
(0.818537 0.0892479 0)
(-0.146917 -0.121627 -6.85068e-20)
(1.31959 0.116431 -1.08228e-20)
(0.675277 -0.0171763 0)
(1.36492 0.0623763 0)
(1.2345 0.229112 0)
(1.31837 0.0953614 1.10344e-20)
(-0.0391618 -0.174504 0)
(-0.0720924 -0.0341529 3.35301e-20)
(1.0372 -0.0756331 8.40626e-20)
(0.99751 0.0354254 1.41003e-21)
(0.859611 0.00149738 0)
(1.03067 -0.0160281 1.34271e-20)
(0.880922 0.0236849 0)
(0.80176 -0.0763268 -9.08199e-20)
(1.03081 0.0367279 1.4865e-20)
(1.09984 -0.0208485 3.97988e-21)
(1.08918 0.0139879 7.36531e-21)
(1.0135 0.066752 -1.26502e-20)
(0.851832 0.00940384 3.06642e-21)
(1.14384 -0.351442 6.3334e-22)
(0.908496 -0.0277045 0)
(1.06633 0.00343716 -1.41145e-20)
(0.873718 0.00817047 -1.22185e-20)
(1.40147 -0.172952 2.13176e-21)
(0.701054 0.0333994 0)
(1.0551 -0.15075 0)
(1.1222 0.0102352 4.11672e-21)
(1.3795 0.195241 8.91244e-21)
(1.10484 0.021867 5.64129e-21)
(1.03647 0.0231838 1.98433e-20)
(0.583215 -0.0728212 -3.16281e-20)
(0.812713 0.00171938 2.1531e-20)
(1.13898 -0.0210367 6.85885e-21)
(1.40912 -0.0482242 -5.40703e-21)
(1.10187 -0.0228776 -7.24531e-21)
(1.34095 -0.0158432 4.63356e-21)
(-0.144621 -0.102559 4.97712e-20)
(1.26907 0.0150939 0)
(0.627778 -0.012191 0)
(1.06629 -0.0198506 -6.71572e-21)
(1.09103 0.017029 7.73624e-21)
(0.0203694 -0.01286 0)
(0.878182 -0.0223013 4.87817e-22)
(1.14056 0.00257797 -4.29415e-21)
(0.989318 0.0474141 2.70391e-21)
(1.07585 0.0383754 -7.98283e-21)
(1.00155 0.018696 2.66573e-21)
(1.06332 -0.0141631 3.78792e-21)
(1.04599 0.0192732 0)
(0.328497 -0.0504284 0)
(1.04451 -0.063454 0)
(1.14706 0.0849629 -2.91732e-20)
(-0.0282441 -0.207216 4.71022e-20)
(1.12963 0.0401274 -1.94429e-23)
(1.03665 0.0337709 0)
(0.746313 0.0162155 -9.98343e-21)
(1.07375 -0.0699897 2.29456e-21)
(-0.0130911 -0.0410229 -1.45135e-19)
(0.973453 -0.0239982 -7.09309e-20)
(0.627768 -0.0135602 0)
(0.80086 -0.046406 0)
(0.941658 0.0525071 9.80136e-21)
(1.02621 -0.123981 5.50964e-21)
(1.27329 0.385418 -1.55977e-21)
(1.00276 0.0342714 -3.57612e-22)
(1.15639 0.0503902 -6.00236e-21)
(0.99543 -0.0367428 0)
(1.35616 0.407506 -3.68917e-20)
(0.685477 -0.0255104 0)
(0.810082 -0.023042 -4.41195e-21)
(1.03882 -0.0179091 -1.46147e-22)
(0.59921 0.0135535 0)
(1.10086 -0.00592325 0)
(0.284882 -0.0621959 -6.64706e-20)
(1.07393 0.159784 -8.02485e-21)
(0.720392 -0.019282 1.62309e-21)
(0.990388 -0.00194801 0)
(0.555722 -0.0188098 0)
(0.763084 -0.023106 -3.41595e-21)
(0.538938 -0.0146509 -3.35455e-22)
(1.30932 0.053978 1.60902e-22)
(1.12071 -0.056426 -8.3468e-21)
(0.715418 0.0173103 -3.33418e-21)
(1.09765 0.000546112 7.03541e-22)
(0.941843 0.130154 3.36972e-22)
(0.565655 0.0136175 8.90141e-21)
(1.17466 0.0722115 1.61019e-21)
(1.12525 0.0982492 0)
(0.876459 0.159673 0)
(0.506537 0.0187903 0)
(1.0604 -0.0106133 0)
(1.16862 0.0738385 2.14066e-22)
(0.937783 0.150671 0)
(1.19353 0.0296296 0)
(1.06892 0.157981 0)
(1.20643 0.177396 0)
(-0.0203704 -0.0546401 4.60875e-20)
(1.25157 0.131366 1.09167e-23)
(1.25059 0.162281 0)
(1.33386 0.111437 1.40094e-20)
(1.27334 0.0669707 -1.00457e-22)
(1.10262 0.0278965 4.68763e-21)
(1.25241 -0.0437138 2.52249e-21)
(1.20468 0.133429 0)
(0.593583 -0.0155078 8.0053e-21)
(1.04911 0.0403058 1.23037e-20)
(1.22271 0.0583269 0)
(1.092 -0.0464031 -2.9596e-21)
(1.2762 0.0213219 2.95181e-21)
(0.378646 -0.175723 -5.19462e-21)
(1.10132 0.0387365 7.82221e-21)
(1.15679 -0.14624 -2.22574e-21)
(0.934515 -0.161678 0)
(1.31835 0.0543274 -4.14103e-21)
(1.09304 -0.0938094 -2.45219e-21)
(0.842083 0.27404 7.5006e-21)
(0.692016 -0.0333645 0)
(-0.0276246 -0.0222689 0)
(0.976793 0.110139 -1.81121e-20)
(1.11719 -0.0608383 0)
(1.34919 -0.0368518 2.17553e-20)
(1.20732 -0.0391587 1.12763e-21)
(1.153 -0.0906592 2.13967e-21)
(1.23418 -0.0320124 -2.57651e-21)
(1.41052 -0.0168568 1.36018e-19)
(1.02467 -0.330873 5.87505e-20)
(1.20562 -0.0422862 -3.97759e-22)
(0.855593 0.0846576 0)
(0.6862 -0.214014 0)
(0.907108 0.00640804 -2.97822e-20)
(1.21665 0.0479051 -2.64307e-20)
(1.19544 -0.139357 0)
(0.760785 0.108144 -5.47853e-21)
(0.355036 -0.374267 0)
(0.782217 -0.0195404 -9.41515e-21)
(0.983705 0.194178 5.47086e-21)
(0.821092 0.0276248 -6.03066e-21)
(1.26948 -0.0181729 0)
(1.16894 -0.140418 -1.3153e-21)
(1.01445 -0.117365 9.16207e-21)
(0.703655 0.209533 -5.70108e-22)
(1.24231 -0.125157 -2.62443e-21)
(0.760696 0.211178 0)
(1.08968 0.0696987 0)
(1.19193 -0.0328801 -6.50378e-21)
(0.912814 0.0706326 9.51085e-21)
(1.28289 -0.0318435 2.30056e-21)
(1.17573 -0.0578862 -2.37809e-21)
(0.850676 -0.122278 1.06984e-21)
(1.10895 -0.076046 0)
(0.416949 -0.140445 1.35849e-20)
(1.30736 0.0864838 -1.45117e-20)
(0.935343 0.231729 -9.44658e-21)
(0.235474 -0.262102 5.49304e-21)
(1.44885 -0.122542 2.57724e-20)
(0.748399 -0.0547438 3.10372e-20)
(1.30138 -0.114043 6.52355e-21)
(1.1682 -0.0360977 -7.73289e-22)
(-0.0405358 -0.237789 -8.05669e-21)
(1.00059 -0.00614886 0)
(1.03471 -0.0893501 -1.6358e-20)
(0.854271 -0.031478 1.01493e-20)
(1.09986 -0.0453053 4.35113e-21)
(0.789668 0.219905 -3.68774e-21)
(0.520198 -0.0194065 6.2734e-22)
(1.42562 -0.389629 -1.55798e-20)
(1.10048 0.07795 0)
(1.0233 0.0362331 2.60986e-22)
(1.12519 0.035259 -2.81237e-21)
(1.33655 -0.175686 0)
(0.770936 -0.20663 6.70621e-21)
(1.14213 0.0580157 3.37918e-21)
(0.640581 0.295129 1.38001e-20)
(1.17477 -0.0391602 2.42082e-21)
(0.95037 -0.130957 -5.01116e-21)
(-0.0367937 -0.159063 0)
(0.0860328 0.15536 -2.65838e-21)
(1.10153 0.0511043 0)
(0.789669 -0.0369583 -2.24542e-20)
(0.655867 -0.194952 0)
(1.13368 -0.00104351 5.59848e-21)
(1.01695 0.0257334 0)
(1.23216 -0.175277 0)
(1.41941 -0.118375 2.23314e-20)
(0.800529 -0.0937309 0)
(1.0088 -0.105332 3.44245e-20)
(1.08625 -0.00345406 -1.91919e-22)
(1.05413 0.0559012 3.37964e-21)
(1.30599 0.0337736 -1.14401e-20)
(1.22813 0.121664 -3.96822e-21)
(1.11141 0.159856 2.0452e-20)
(1.16388 0.0823215 0)
(1.20199 -0.116706 0)
(1.16033 0.0637917 1.35004e-21)
(1.23652 -0.00911092 0)
(1.40501 0.177795 -2.42269e-20)
(0.63977 0.144534 2.09974e-21)
(1.02596 0.0170938 2.33031e-20)
(1.20368 0.0804648 -1.44234e-22)
(-0.00864499 -0.0520202 0)
(-0.0319605 -0.104062 0)
(0.24401 -0.129558 -5.21399e-20)
(-0.0163041 -0.239857 0)
(0.565351 0.0895184 -1.27685e-20)
(1.19706 0.0474787 -3.236e-21)
(1.15187 -0.10451 -4.90831e-21)
(1.32736 -0.160226 -1.44609e-21)
(1.24615 -0.0247974 0)
(0.690123 -0.0112133 -1.33685e-21)
(1.21411 0.0775817 0)
(1.16781 0.0640146 -3.92068e-22)
(0.502406 -0.111579 0)
(0.527606 -0.102609 -6.6569e-22)
(1.20869 0.0555174 0)
(1.12426 0.00802473 0)
(0.917423 0.279092 7.34767e-20)
(0.454371 -0.18221 -2.57974e-22)
(0.942957 0.0064514 -6.22045e-21)
(1.00934 0.0180179 -9.71005e-21)
(0.194989 -0.160009 0)
(1.09852 0.0291748 -4.21525e-20)
(1.16986 0.00886636 3.25407e-21)
(0.976885 0.118114 2.73173e-21)
(0.609706 -0.223584 6.11939e-21)
(-0.0453488 -0.196231 -9.83847e-20)
(1.19785 0.0136078 0)
(-0.0364405 0.0369204 0)
(1.18014 -0.0120085 9.47228e-21)
(0.521831 -0.324064 -6.58645e-21)
(1.07287 -0.00559915 -1.63809e-20)
(1.11786 -0.0514513 0)
(1.10124 -0.0931713 3.45636e-21)
(1.27049 -0.0835951 2.30454e-20)
(0.537218 -0.0596279 -9.12199e-21)
(1.15496 -0.0449711 -2.25091e-21)
(1.1557 -0.105428 -1.33942e-22)
(0.46197 0.141542 6.82601e-21)
(1.20173 -0.152699 -1.1584e-21)
(1.11145 0.0343013 0)
(1.21935 0.0364707 0)
(1.22608 -0.0800118 3.57986e-21)
(1.14383 0.0279032 -2.94104e-21)
(0.640655 0.0824115 -6.6854e-20)
(1.19658 -0.114168 -1.56878e-20)
(1.11984 0.0288291 1.26135e-20)
(0.521327 -0.00306928 1.46307e-20)
(0.71872 0.189255 -1.40002e-19)
(-0.119364 0.433531 3.08764e-20)
(1.16859 0.174075 -6.53377e-21)
(1.24615 -0.502138 5.34966e-21)
(1.30366 0.106192 -1.50523e-20)
(1.24553 -0.0483217 -4.24226e-21)
(0.944246 -0.240561 9.50618e-20)
(0.0105357 0.360038 0)
(1.09767 0.0340294 -2.0672e-21)
(-0.00948599 0.379903 -1.24227e-20)
(1.18551 -0.0148997 -8.19706e-21)
(1.19283 0.0593308 8.9234e-21)
(1.09795 0.0382105 0)
(0.757087 -0.290214 0)
(1.16451 -0.038772 0)
(1.15231 -0.0140737 1.08795e-20)
(1.23732 0.0132365 -1.85259e-20)
(1.17652 -0.0655446 -5.04297e-22)
(0.462837 0.0177207 0)
(0.613659 0.0132691 0)
(0.616799 -0.0052622 2.86215e-22)
(0.441244 -0.0179037 0)
(1.14725 -0.0556546 0)
(1.02337 -0.0110915 2.58853e-20)
(0.632034 -0.279831 0)
(0.954831 0.0265622 0)
(1.07597 -0.0494299 0)
(1.16706 0.183526 -7.92498e-21)
(1.20037 0.0406627 2.82616e-21)
(0.970924 -0.0312604 8.51553e-21)
(1.30604 -0.408631 -1.07511e-19)
(0.779545 -0.136998 3.149e-20)
(1.37308 0.119896 8.90037e-22)
(1.26114 -0.147161 0)
(-0.211333 0.213397 0)
(-0.180343 -0.103562 0)
(1.18154 -0.0240341 -1.94827e-21)
(1.33545 -0.292919 -2.32974e-20)
(1.23109 0.0824116 0)
(1.10325 0.0590554 -8.7011e-21)
(0.335177 0.0687315 0)
(1.53159 -0.169694 7.5987e-20)
(0.409542 0.513055 1.21013e-19)
(0.271953 -0.0640907 0)
(1.10905 -0.283741 1.15419e-19)
(0.5751 0.352303 0)
(0.0815596 0.0983092 4.84731e-21)
(1.18762 0.0920363 0)
(0.0556017 -0.00487235 -1.7838e-21)
(0.983795 -0.0495114 0)
(1.33801 -0.0681938 -1.07721e-20)
(-0.1367 -0.197351 -8.19177e-21)
(1.13326 -0.0225999 2.02914e-21)
(1.16178 -0.128756 -1.34125e-20)
(0.579664 -0.531085 -9.15364e-20)
(1.2617 0.0442784 -3.41111e-22)
(1.20174 -0.123874 4.13536e-21)
(1.17413 0.235806 -2.18558e-20)
(1.23626 -0.11548 -1.8092e-20)
(1.17175 -0.0102962 6.36096e-22)
(-0.283276 0.0846939 -3.11186e-20)
(-0.0217484 -0.0415182 -7.27524e-21)
(1.39267 0.0212948 1.83679e-21)
(1.05893 -0.0444959 0)
(0.506284 -0.199877 2.30835e-21)
(1.41865 -0.45079 8.05167e-20)
(0.950015 -0.0989645 -5.81722e-20)
(1.3947 0.12437 6.36073e-20)
(1.0754 -0.0410786 3.65399e-21)
(1.13143 -0.20939 4.99376e-21)
(1.06307 -0.00749407 0)
(1.16951 0.00219018 0)
(1.35628 -0.114841 8.82471e-21)
(1.08799 -0.0187847 -4.46261e-21)
(1.29434 -0.252881 1.88961e-20)
(1.12565 0.0285998 -7.61e-21)
(1.45109 0.0382216 -5.30783e-20)
(0.479391 0.0117213 0)
(1.28576 -0.183678 -1.07351e-20)
(1.25562 0.126021 0)
(1.1385 0.0246992 -6.96696e-21)
(1.13889 0.0281765 0)
(1.04004 -0.00735769 1.36724e-20)
(1.22377 0.0481886 8.35701e-21)
(1.164 -0.170879 0)
(0.048645 -0.0316028 1.54107e-19)
(0.886368 -0.219452 -7.45628e-20)
(1.43365 0.124476 -3.91121e-20)
(-0.0981215 -0.195655 4.18082e-20)
(1.16994 0.0262476 1.60069e-22)
(0.645528 -0.203561 -1.50135e-21)
(-0.110471 -0.1626 -4.36061e-20)
(-0.0189263 -0.0599951 -2.67946e-20)
(1.02016 -0.0284768 0)
(-0.0271824 -0.0351292 0)
(1.18177 0.235731 0)
(0.112517 -0.115763 0)
(1.12071 -0.0304866 0)
(0.12763 0.0270455 0)
(1.09923 0.0354088 0)
(1.08762 0.168802 0)
(1.25852 0.00980676 -7.587e-21)
(0.58147 -0.289396 -2.15569e-20)
(-0.233291 -0.0972976 0)
(1.16508 -0.101399 6.05538e-20)
(1.36332 0.143036 -2.65598e-21)
(1.39665 0.230448 0)
(-0.0397255 -0.0414642 0)
(1.15518 0.0204795 -2.30228e-21)
(1.16731 0.00742086 4.77739e-22)
(1.16336 0.380048 0)
(0.260059 -0.121185 5.75254e-20)
(1.11782 0.0623099 1.50905e-21)
(0.232462 -0.0531898 -5.2483e-20)
(-0.0591159 0.0435921 -3.32882e-20)
(-0.0262306 0.0479598 8.59158e-20)
(0.355958 0.348508 -1.14388e-20)
(1.02356 -0.167077 1.41302e-21)
(1.12017 0.0265561 -1.36891e-20)
(1.02427 -0.00804698 0)
(1.07115 -0.066943 -2.2071e-20)
(1.17346 0.0723233 -3.03755e-21)
(-0.00946347 -0.0643963 1.01041e-19)
(0.982258 -0.0721659 -5.99219e-20)
(0.62301 -0.212635 -2.26765e-21)
(1.17668 0.0155465 -5.0688e-22)
(0.0667255 -0.0340507 3.2866e-20)
(0.240578 -0.0405708 -4.70094e-20)
(0.396073 -0.0867987 -5.21531e-20)
(1.14197 -0.0585671 1.77393e-20)
(-0.0572854 -0.035137 0)
(0.935728 -0.153498 3.20585e-21)
(1.20716 -0.275715 -1.00213e-20)
(1.23687 -0.283289 9.66306e-21)
(1.3218 0.13863 0)
(1.52835 -0.227255 7.15237e-20)
(1.16707 0.0105114 -4.99044e-21)
(-0.0143968 -0.0619735 -3.46213e-20)
(0.326642 0.011904 0)
(0.932198 0.0392559 -3.95436e-21)
(1.11163 0.0280141 1.20915e-21)
(0.499911 0.122548 1.56182e-20)
(1.16041 0.017276 1.48836e-21)
(1.11414 0.0517385 0)
(1.1553 -0.17702 -1.45042e-20)
(-0.0465613 -0.240769 -7.17253e-20)
(1.31662 0.00398922 2.53661e-20)
(1.10091 0.171044 -8.92216e-21)
(1.1336 0.0392224 8.70343e-21)
(-0.0395252 -0.0648152 1.5372e-20)
(-0.0242783 0.0188981 -6.34576e-20)
(0.969572 0.0786365 0)
(0.853829 0.301305 0)
(1.14582 0.0933548 -1.88868e-20)
(1.05049 0.067322 1.36907e-20)
(1.15145 0.0563314 0)
(0.711595 -0.0410113 6.83558e-20)
(0.766323 0.0639564 -1.18381e-20)
(1.09669 0.101406 0)
(1.11625 0.0547319 0)
(1.27467 0.208122 0)
(1.11107 0.0356412 0)
(1.27991 0.149298 2.15086e-21)
(-0.041769 0.0456923 3.63564e-20)
(1.13691 -0.0454714 1.0011e-20)
(1.44314 -0.205596 -8.33291e-20)
(1.23207 0.152738 -3.42153e-21)
(-0.175981 -0.0395323 0)
(1.21821 -0.199806 0)
(0.63207 -0.0171269 -7.53367e-22)
(0.560077 0.00376195 -6.10064e-20)
(0.0844475 0.0326843 4.92939e-20)
(0.951962 0.026929 2.23881e-22)
(0.746555 -0.275663 0)
(0.67928 -0.0952223 0)
(1.16851 0.150547 0)
(0.538343 0.509953 1.85371e-20)
(-0.0139581 -0.0143505 -2.96029e-20)
(1.15135 0.0981069 7.16714e-21)
(-0.0210173 -0.120051 6.55834e-20)
(1.17386 -0.0063172 2.92307e-21)
(1.16646 0.30538 4.16864e-20)
(1.1153 -0.0890683 8.65274e-21)
(0.0184375 0.0383729 4.13265e-20)
(1.09541 -0.0478245 -4.08521e-22)
(1.16998 -0.211698 0)
(0.56419 0.27153 0)
(0.927366 -0.217998 -2.26407e-21)
(-0.16832 -0.170026 0)
(0.604827 0.0282444 2.90286e-21)
(0.609583 -0.422811 -3.16974e-21)
(0.25208 0.0480469 -1.13348e-19)
(1.12602 -0.231332 3.33319e-20)
(1.03511 0.354925 1.03437e-20)
(0.978547 0.0155204 0)
(1.11511 0.0388695 8.02497e-22)
(0.644671 0.0200974 0)
(0.983828 -0.0262687 -3.53873e-22)
(0.433243 -0.0249404 0)
(0.7108 0.119577 0)
(1.00646 -0.018405 -6.15273e-21)
(1.42717 0.153588 -1.13796e-20)
(1.17494 -0.0298976 1.24143e-21)
(0.527384 -0.49866 0)
(1.13617 -0.154926 2.6066e-21)
(0.800323 0.366557 7.17985e-20)
(-0.0282501 0.0214515 1.21356e-21)
(1.2277 0.0164455 4.84775e-21)
(1.21091 0.0454564 -5.92156e-21)
(1.23151 0.0587797 8.93781e-22)
(0.796235 0.00808081 -4.80963e-21)
(0.0766637 0.015958 3.87972e-20)
(-0.015169 -0.108091 -5.64735e-20)
(-0.191453 -0.143505 0)
(-0.266927 -0.0357451 0)
(1.1959 -0.623342 3.22255e-20)
(1.1564 -0.0219703 -6.20701e-22)
(0.894905 -0.469628 -4.33041e-20)
(0.917838 -0.195422 -8.36138e-21)
(1.36445 0.183692 3.31681e-20)
(0.604383 0.419139 0)
(0.244228 0.408045 -1.18175e-19)
(0.591801 0.46724 0)
(-0.0658387 -0.0844088 0)
(1.1331 -0.486967 0)
(-0.0450706 -0.0928845 -3.82156e-22)
(1.18771 0.00549474 0)
(0.766854 0.189225 5.11942e-21)
(0.590355 0.682783 2.02038e-20)
(1.18291 0.0935985 -1.10595e-20)
(-0.0268273 -0.163553 -1.06569e-19)
(0.304554 0.0221167 3.18085e-20)
(0.462082 0.144786 -1.3529e-20)
(1.19464 0.0896092 0)
(1.35734 0.344556 3.46429e-20)
(1.21751 0.555242 6.06294e-21)
(0.188394 -0.023701 -2.34095e-20)
(1.02603 0.0863352 3.22972e-20)
(0.935872 -0.0202867 1.0373e-21)
(0.920433 0.0370484 -3.64486e-22)
(-0.0182535 -0.0402954 0)
(0.653065 -0.665553 -3.01461e-20)
(0.612665 0.18856 0)
(0.146868 -0.211043 0)
(-0.0466514 0.0405295 0)
(0.0367229 -0.223853 -4.0713e-20)
(1.23247 0.0172443 -5.58704e-21)
(-0.0246754 0.0157745 0)
(-0.03167 -0.000950868 0)
(1.43428 0.0952595 -5.9925e-20)
(-0.0381637 -0.105887 4.80599e-20)
(0.113677 0.226924 -1.0264e-19)
(0.416857 0.00760415 0)
(0.17077 -0.287749 8.13288e-20)
(1.09522 -0.245747 0)
(1.0032 -0.289975 0)
(0.0295625 -0.167445 1.01115e-19)
(1.14333 0.0429956 -2.0224e-22)
(1.12183 0.332167 2.88946e-20)
(0.280749 0.024752 4.71614e-20)
(0.407423 -0.525391 -3.66062e-20)
(1.26379 0.0615434 0)
(1.23296 0.173156 2.23892e-20)
(1.22751 0.198907 -2.74965e-20)
(0.101948 0.0786418 -2.36311e-20)
(-0.065461 -0.145337 0)
(1.07335 -0.0519383 -1.98058e-20)
(1.10621 -0.225927 -1.63977e-20)
(0.586533 -0.41664 0)
(1.0988 -0.154695 -2.64591e-20)
(-0.241671 -0.0483279 0)
(0.617851 0.0112213 0)
(1.43219 0.107865 4.20656e-20)
(1.01809 0.0369108 6.67049e-22)
(1.07066 0.732416 -1.80707e-20)
(0.227653 -0.386527 1.31172e-19)
(1.14613 0.0260651 1.31617e-21)
(1.19747 0.0753237 -1.68711e-21)
(-0.0478316 -0.015837 3.03625e-20)
(0.784163 0.726711 3.08746e-20)
(1.36326 -0.377591 -1.31861e-20)
(0.371143 0.139546 1.16297e-19)
(1.07083 0.0385 0)
(0.0182976 -0.112362 -4.67336e-21)
(0.906251 -0.642248 2.85891e-21)
(0.900374 0.63822 -1.68274e-20)
(0.54469 -0.0409965 -6.11117e-20)
(1.14213 0.00322509 -7.79818e-21)
(1.07765 -0.0829392 7.2587e-21)
(1.13159 0.0305424 5.17481e-21)
(1.10347 0.11919 5.3797e-21)
(1.13279 -0.124033 0)
(0.926979 0.094064 1.49645e-20)
(0.892338 0.457631 0)
(1.12611 0.0207765 -6.89268e-21)
(1.16101 0.110254 2.0814e-21)
(0.763403 0.263637 0)
(0.536776 0.108924 1.0809e-19)
(0.888574 0.702595 -1.14285e-21)
(1.07359 0.283558 -2.21907e-20)
(1.04207 -0.00924992 1.28553e-20)
(0.412429 0.477732 0)
(1.30873 -0.480959 0)
(0.404655 0.0214077 2.05025e-21)
(1.26468 0.496744 0)
(-0.0111234 0.0372733 -4.44667e-20)
(1.29398 -0.419654 -6.07292e-21)
(1.15934 0.498243 0)
(0.452123 0.202997 1.71289e-19)
(1.13134 0.311277 -1.19896e-19)
(0.82311 -0.652483 -2.6017e-20)
(1.12849 0.033008 6.0795e-22)
(0.93125 0.146703 8.21758e-20)
(1.08584 0.164078 5.40238e-20)
(1.06766 0.695847 1.2178e-21)
(0.911074 -0.447217 6.59652e-20)
(1.39961 0.174937 3.45411e-20)
(1.12765 0.00995612 -1.36534e-21)
(-0.00690852 -0.073264 8.70837e-20)
(1.0916 -0.711279 2.59552e-20)
(0.879019 -0.730084 5.35332e-20)
(0.253902 -0.349503 0)
(0.973136 -0.150252 7.39902e-20)
(0.36021 0.292724 -4.44612e-19)
(-0.068314 -0.192428 3.35161e-20)
(0.269927 0.0111364 2.32557e-20)
(0.675505 -0.0631752 -7.24005e-20)
(1.07391 0.518509 0)
(0.991042 0.216997 8.20384e-20)
(1.0833 0.0314876 4.12321e-21)
(0.904008 0.431473 -9.25707e-20)
(0.789286 -0.733941 -8.31382e-21)
(0.924399 0.0173078 -4.95945e-20)
(0.972308 0.478448 0)
(1.06315 0.026644 5.97461e-21)
(1.39261 -0.522059 1.28822e-20)
(1.2364 -0.346422 9.37663e-21)
(-0.303896 -0.0377135 3.0721e-20)
(0.1948 -0.0135956 -1.82958e-20)
(0.97982 -0.121508 -5.90462e-20)
(0.348937 0.513501 0)
(0.912104 0.00970284 3.95155e-20)
(1.1562 0.629942 7.67503e-20)
(0.00963474 -0.224955 1.54698e-19)
(-0.0734602 -0.0688916 -2.50352e-20)
(-0.0727411 -0.217148 4.16688e-20)
(1.09535 0.0232686 -5.63475e-21)
(1.139 -0.467525 0)
(1.07737 -0.745862 -4.2854e-20)
(0.695362 0.338124 0)
(0.107667 -0.228447 -1.13424e-19)
(1.16387 0.0399355 4.42689e-21)
(-0.0344969 -0.177606 -2.94392e-20)
(1.04742 0.0547734 -1.17706e-20)
(0.126861 0.0204623 5.77896e-20)
(0.868108 0.118251 0)
(1.3957 0.0390309 5.18855e-20)
(0.0414492 -0.00681655 -2.64063e-20)
(-0.344239 -0.113341 -3.64596e-20)
(-0.20961 -0.11322 0)
(0.069107 -0.0207714 0)
(1.34893 0.0362583 -1.50879e-20)
(0.374129 -0.0147862 1.49071e-19)
(1.27864 -0.73671 -2.17514e-20)
(0.722135 0.0686759 1.30812e-20)
(1.0678 0.244904 -3.14961e-20)
(0.372222 -0.571188 1.40138e-19)
(1.53277 0.261026 -3.35486e-20)
(0.0733371 -0.120709 3.3616e-20)
(0.206612 0.290287 1.98364e-19)
(0.086028 -0.070743 -1.26238e-19)
(0.949493 -0.501858 -4.37935e-20)
(1.44987 0.375447 3.41765e-20)
(0.573127 -0.687096 4.88563e-20)
(1.1075 -0.0762614 -7.21824e-21)
(0.3329 -0.115885 6.21724e-20)
(1.19297 0.282167 -4.8996e-20)
(0.657689 0.628312 -4.19921e-20)
(1.3492 -0.632038 0)
(1.41841 0.509626 3.35768e-20)
(1.06205 -0.53693 -1.27388e-20)
(1.38524 0.597031 -9.59082e-20)
(1.15103 0.0361875 0)
(-0.0490953 0.0310334 0)
(1.24542 0.719535 0)
(1.07847 0.0176424 -1.17293e-20)
(0.745873 -0.311513 -2.08635e-19)
(0.476189 -0.0959955 0)
(-0.0601086 -0.00022893 -2.57489e-20)
(1.02122 -0.248376 1.01149e-19)
(-0.317879 0.0908699 0)
(0.321341 0.010581 1.23597e-20)
(1.11559 0.0354419 0)
(1.41629 0.258562 0)
(1.1571 0.0322829 -6.50995e-22)
(0.362852 -0.306823 0)
(1.01336 0.146832 3.89019e-20)
(1.31092 0.275512 0)
(-0.105907 -0.0700796 -6.63667e-22)
(0.816734 -0.406719 0)
(1.50443 0.325285 -5.069e-20)
(1.23572 0.356451 1.3613e-21)
(0.834533 0.632941 -1.01013e-20)
(1.00898 0.155761 -9.06543e-20)
(0.969256 -0.208939 -4.92291e-20)
(1.4452 0.280352 2.97333e-20)
(0.989224 0.0377959 0)
(0.563965 -0.0825645 0)
)
;

boundaryField
{
    FrontBack
    {
        type            empty;
    }
    Top
    {
        type            noSlip;
    }
    In
    {
        type            fixedValue;
        value           uniform (1 0 0);
    }
    Bottom
    {
        type            noSlip;
    }
    Out
    {
        type            zeroGradient;
    }
    circle
    {
        type            noSlip;
    }
}


// ************************************************************************* //
