/*--------------------------------*- C++ -*----------------------------------*\
| =========                 |                                                 |
| \\      /  F ield         | OpenFOAM: The Open Source CFD Toolbox           |
|  \\    /   O peration     | Version:  2412                                  |
|   \\  /    A nd           | Website:  www.openfoam.com                      |
|    \\/     M anipulation  |                                                 |
\*---------------------------------------------------------------------------*/
FoamFile
{
    version     2.0;
    format      ascii;
    arch        "LSB;label=32;scalar=64";
    class       volScalarField;
    location    "1401.5";
    object      p;
}
// * * * * * * * * * * * * * * * * * * * * * * * * * * * * * * * * * * * * * //

dimensions      [0 2 -2 0 0 0 0];

internalField   nonuniform List<scalar> 
808
(
-0.03363186331581553
0.04427604479433149
-0.01166307147311962
0.0373379834547795
-0.2970843790097578
-0.05523517463687127
-0.01520013390498157
-0.02389107678216675
-0.1953099723795836
-0.08306716425415753
-0.009811447677454762
-0.2522300642635872
-0.03061388487261454
-0.01364036536115226
-0.1246570475959049
-0.01408718994725292
-0.1424610944093523
-0.01365036200145424
-0.01298312040794745
-0.05509520588209636
-0.007188380560099864
0.1169080136997533
-0.06282731380058966
-0.07092567298437569
0.1745562306683964
-0.09990138865346944
-0.151154241465345
-0.02042334567738639
-0.01756878173566298
-0.0258438600546088
-0.02029853681129877
-0.05783196756184917
-0.0229233596329031
-0.01693978015864473
-0.0984754852472576
0.3450381595268913
-0.03949282273637716
-0.01671950231611677
-0.02269676777959358
-0.02655634526150487
-0.08935986351164089
-0.1254097133210127
-0.05224787511677828
-0.02103122560479251
-0.05552278099807374
-0.04192029243192603
-0.01213375963531277
-0.182841834808746
-0.02675881900505867
-0.2024186198013595
-0.01667293704046571
-0.06647335529310819
-0.06117861157611228
-0.0152230137632848
-0.1946306365078836
-0.02806076342674841
-0.01094232309250455
-0.01535287447622826
-0.09935346064711482
-0.03939880044316271
-0.1015976589794622
-0.1248182031667526
-0.01407499276429769
-0.1267878384829553
-0.01718578308141121
-0.05204402546799645
-0.1614387017688632
-0.03552456149003462
-0.01525608044602168
-0.4380946547374849
-0.02639328172083747
-0.3001870763622798
-0.02151223105410138
-0.02066039540422356
-0.06317451293039424
-0.01792167104479048
-0.04213328108787878
-0.3663164199216969
-0.03609840118530282
0.03897296174375557
-0.09215817005419426
-0.01695118048726313
0.05707876749488654
0.04577997526737499
-0.01720925252508682
-0.05173383423637381
-0.5393266977685581
-0.227851262425746
-0.05161596110012714
-0.1132827183119188
-0.05592580492148936
-0.1312489176848632
0.0387086262725489
-0.02603834957821717
-0.06227652750588067
-0.1161271293782997
-0.0383386122438215
-0.05239819420947422
-0.1148855404201302
-0.1362467702327839
-0.05269705281690929
-0.04692189882398211
-0.05383219588979428
-0.04438756647938118
-0.05704364838281659
-0.07503650602850845
-0.04117829422424429
-0.01112579295127529
-0.03996060124828155
-0.1227209400263091
-0.05003751120729907
0.08151519097300815
-0.04210105302284776
-0.008199332545759282
-0.02769503683805077
0.1809426124258434
-0.03836612565010533
-0.2667416038270848
-0.02052291384039253
-0.05294241773159947
-0.03329356804030398
-0.04908606006435676
0.01386619311640016
-0.04799141715234728
-0.03618074225581347
-0.21919855504338
-0.04036590527751057
-0.004808211369217832
-0.07499814754071858
-0.06929146092982652
-0.1425168901695429
-0.02095531385399285
-0.07443927190026735
-0.04371895397061121
-0.02287478763379712
-0.01522052368625198
-0.006323374701636456
-0.007299905943642559
-0.05209174348541805
-0.04922436467772658
-0.2185098801124155
-0.05579475217699932
-0.008347695298045833
-0.02207611654266684
-0.1483420567579901
-0.002793336650690785
-0.07555486900310635
-0.021233795320955
-0.0007318579847602161
-0.01108078197736803
-0.03309755008082386
0.09338816354422214
-0.03818077255831152
0.2516400945269514
-0.268475346772133
-0.1332202626629244
-0.03765876511541961
-0.09092363761939459
-0.009419094291604629
-0.1141773317652271
-0.1756082393047999
-0.2199576792191113
-0.1755104457989388
0.05679053847636448
-0.06341252343797274
-0.02047652714278319
-0.0664210591023337
-0.1649122496336553
-0.02323544280300976
-0.01840251978495361
-0.05133252160229207
-0.02032692036609398
-0.00714305844497773
-0.1062689614094934
-0.02322655314227968
-0.0444118085199723
-0.07059168625858528
-0.1595690259975179
-0.03324689324804814
-0.3871258590814345
-0.01787759053869245
-0.2268979877777678
-0.04375640026252275
0.03285469633905514
-0.106552010631482
-0.01611017020439693
-0.04289531365254492
-0.1034916780962061
-0.01771313510862274
-0.09465562781723467
-0.2076657269371341
-0.07113075859360288
-0.02392417013356624
-0.04737020690939971
-0.04226402342918498
-0.2043651225595819
-0.02215713440057321
-0.01915019397120779
-0.01127144872125781
-0.05687766535408443
-0.04999404792605115
-0.02241940554374311
-0.02076498675279912
-0.2387085935699754
0.1269947122561597
-0.2062673705759177
-0.1925850105089401
-0.0117796393176799
-0.01134304741400635
-0.06674662721313733
-0.01032317830003525
-0.5003228544762293
-0.1205216195386419
-0.01931772926656765
3.068737590796169e-05
-0.02385484044788013
-0.2791454564200831
-0.2796868712708367
-0.007151389303985941
-0.01714892566052889
-0.001144890339263921
-0.350707091399708
-0.02839668088354353
-0.02922022429736701
-0.01255416419154353
-0.01958447713606822
0.04903153301576542
-0.1131260927640533
-0.01432920943487219
-0.0208601135375782
-0.04502980595009499
-0.01828548772752365
-0.01623220387621301
-0.02348725331165487
-0.06788367899403881
-0.01130859206309833
-0.01900055037404514
-0.008687603383722568
-0.0007860621320753103
-0.02945325053199047
-0.001862954260989065
-0.002093440073168877
-0.005756021619955248
-0.02557474564244357
-0.007970118848603077
0.0014699141815351
-0.004285288698076464
0.001405639353690835
0.00250689117371035
-0.008986786630035552
-0.1376017782575102
-0.002951927043348923
-0.001281296705001583
-0.0480143284034905
-0.02157205128648134
-0.02399212010930269
-0.01425510526165996
-0.006206622882888669
-0.02095927243971689
-0.03975004651122535
-0.01440000562118668
-0.01289754071010178
-0.01134513483407518
0.008852439920893252
-0.0100416307356453
-0.01201935814899727
-0.01155275833878361
-0.01046161490268568
-0.01038838308556539
-0.01216639299447128
-0.01381075634055226
-0.3000323384182366
0.05910282461746805
-0.01586827884859856
-0.01501764967770317
-0.01279337932659085
-0.01179875139038375
-0.008645268858246864
-0.09657852278309903
0.01286516050189153
-0.01373475652161673
-0.01396654975189386
-0.01057726044377249
-0.05116565924740867
-0.01002511253820954
-0.01352543753666518
-0.01029465511686956
-0.0004490616757118463
-0.01120119345714699
-0.01225854770369471
-0.02445386418490598
-0.01551340024644736
-0.01197387621446829
-0.01357362476843005
-0.007665794208627254
-0.01208292603852909
-0.0116487309282385
-0.05935766836344925
-0.01351701710260902
-0.01142773405618405
-0.008996469279345276
-0.01509591242936662
-0.01365070388527316
-0.01561299475428527
-1.364607953396941
-0.1001645499656618
-0.01314744633224503
0.0265533975300159
-0.1611689650516899
-0.09146460500544035
-0.01214112131755413
-0.01408256763536898
-0.2334035697311123
-0.02847339152147431
-0.01793720048584983
-0.01187947674675756
-0.02005104424377055
-0.01011445880843159
-0.03079150786585092
-0.4085744885683566
-0.01238835213691352
-0.01410122564949062
-0.004603865788780345
-0.01134444313397072
-0.01077123737315719
-0.01401509352555234
-0.006490332809917835
-0.02680033029290962
-0.0117736881789065
-0.1718343097786918
0.01929044773222073
-0.007395762834503229
0.004243726765978133
0.01340526467373224
-0.04852939047759954
0.02792268425551269
-0.01339711385961077
-0.1321582767017116
0.2828925712876613
-0.007566711163213709
-0.01368210757785572
-0.008098805195197524
-0.03261912261255792
-0.125230526380199
-0.01219822221884737
-0.01205857998644402
-0.01697227018374723
-0.01352134497271487
-0.04148238963019122
-0.2193344467458176
-0.009819192611842832
-0.04325655089606538
-0.03886051822585699
-0.17576725775531
-0.1574426959686203
-0.1362391890109066
-0.2252379064263276
-0.004958691885696397
-0.02086951021687011
-0.01444552772218021
-0.01320292208516348
-0.03353234399005586
-0.02452227838898885
-0.01416247263370182
-0.01487318931945795
-1.069126371118639
-0.005725895269387361
-0.01320039510980719
-0.01824702404481226
-0.02471958335895198
0.0003230684623964181
-0.01491666815747031
-0.02556208907164793
-0.1487633767522907
-0.01362515944908424
-0.02169369288437873
-0.01407806608524436
-0.001568981745233227
-0.1776520290783871
-0.01267366465542962
-0.148413457200803
-0.01572232349370397
0.002539287386747694
-0.01438677852254732
-0.02385743573805708
-0.01578397397787073
0.005349793119818556
-0.2701043607524664
-0.02626382370416121
-0.01630620363390521
-0.005876331617407761
-0.01031591253406908
-0.02960270712650297
-0.01398215997981131
-0.02074406348467734
-0.02078925562566797
0.01427187863848989
-0.09787418483031285
-0.02143006105452343
0.009418681392263898
-0.05707922726433671
0.1774015602531114
-0.1059997856962317
-0.315412636091247
-0.03076634060909481
-0.0257683118927575
0.1515096664248796
0.07858507080870943
-0.003763901931694168
0.05080619492831914
-0.01515227176259109
-0.01376443690550252
0.002545753338585782
0.00856380540079647
-0.06501455270601578
-0.005561450322430402
-0.0562546143496844
-0.02260058088275138
-0.01572405307461987
-0.03653422994930646
-0.03291731688595753
-0.006664044689365819
-0.01498709525624319
-0.03690755316522962
0.03484659769140395
-0.03876361348620441
-0.01397693921190019
-0.119150311733094
-0.03141238710249303
-0.03958913662499735
-0.6684477120776227
0.01926246240041704
-0.01027060556792415
-0.005888291502757509
0.1685771473805544
-0.09276290127611685
-0.03556226968081769
-0.2422141665313167
-0.01597600592358063
-0.01623709249024046
0.07786109271121877
-0.1798435320627525
-0.2354629344017877
-0.1901083634681097
-0.6768812308345356
0.002697911747831378
-0.01802054944805513
-0.01655659695807736
-0.08755917286330635
0.1187178651605408
-0.02104213092387916
-0.2282139637354422
-0.03586028002383645
-0.006813004676584674
0.2810823116478874
-0.01106532608266186
-0.09102424817952978
-0.1527029905177335
-0.003452218867973505
-0.04126340529363654
-0.05243175108852595
-0.1996956512788872
-0.007984947035956817
-0.03999222778535436
-0.00279451011507727
-0.5435554038649932
-0.1928624623857709
-0.1787772990091164
-0.02319208090387243
-0.008254478308529213
-0.06177650327697899
-0.05662958532221739
-0.013969454192778
-0.06926674238769892
0.004922371324625722
-0.01784641893646805
-0.09334358972444302
-0.2751676698198364
-0.008044984917711497
-0.02564493962490542
-0.02155104303746832
-0.07600855784549855
-0.08906274984251443
-0.0894583368318735
-0.01201771412034312
-0.9119589321604293
0.162417956290818
-0.07968964928853482
-0.2483073813410228
-0.04150331848031392
-0.009853875075828737
-0.2547233178864864
-0.1969569074340299
-0.03097098070930387
-0.1228173811130683
-0.01951393633413212
0.56382892782077
-0.02479910297388315
-0.2202831131147615
-0.02524353562557136
-0.005210345346554238
-0.01147959080706712
-1.241672175020938
-0.1795134910573734
-0.2269387392024798
0.005219149940780371
-0.03898078182313237
-0.2440049418489526
-0.06681878201886064
-0.05191124109817478
-0.1463561864723389
-0.1799674011073648
-0.06963143990979993
-1.215228140539856
-0.1511231822293897
-0.5361780111198892
0.07996749437508707
-0.005938019994069727
-0.02121151309279831
-0.04439753066510629
-0.03819990052450808
-0.0280926934104224
-0.1285376330023606
0.08157172883329696
-0.002249892554069076
-0.009992432152069478
-0.5677482700968599
-0.8513183523482899
-0.1767932667181194
-0.008110991826063176
-0.1319258331141042
0.0006397577845683687
-0.0001365319650217465
-0.002374081303828948
-0.06079129315040704
-0.2335376999744233
-0.01326613067225877
-0.1181594125749937
-0.1579837902084711
-0.01314923054360343
-0.03471397509335457
0.02774162262443693
-0.05849788074153844
-0.07169596152708239
-0.4944854717038392
-0.2114280698060582
-0.07930187075264176
-0.07528866390184256
-0.01951564909404914
-0.1197759825894701
-0.1581498611189137
-0.07779609447772438
0.02333119238023337
-0.08681521658869321
-0.05008870518773411
-0.01488026122013163
-0.1088394234628507
-0.2793210688137803
-0.05918472127467571
-0.01811806399600789
-0.0004983143090732567
-0.0100462505386381
-0.0107350993517397
-0.2287634652537968
-0.01497956278943512
-0.2166664031477701
-0.01034397936218404
-0.0735420101959476
-0.004446169060378835
-0.02326564390520134
-0.3892454847951081
-0.926727280105617
-0.0112995612243454
-1.038265607319539
-0.6035274769987434
-0.01045374591308765
-0.6652390368913846
-0.1863040134529902
-0.00585376682277241
-0.1261938920718811
-0.01668249055292412
-0.1253074454300121
-0.06498153050532859
-0.08167016070873069
-0.005129790314773143
-0.002365268060922516
-1.349886703415276
-0.01151690826622849
-0.1782855582033561
0.0008736593593822338
-1.001892474762219
-1.249727062840829
-0.07841322759809088
0.01618578324116417
0.1646383187219588
-0.004503393033655009
-0.02302397712745839
-0.004208916636106839
-0.2441491028660497
0.3655543879846971
-0.04192039409967398
-0.2140617945720532
-0.01499805811170082
-0.6470047006764282
-0.07229355894713285
0.1882512383298429
-0.296766367549332
-0.05055759148707389
-0.07000548541985614
-0.01584045037803899
-0.02156286549418104
-0.5903114081801045
-0.1502038741618491
-0.09055277682587835
-0.1219910486082269
-0.5487413757878499
-0.04505357287339704
-0.898835967295198
0.0006121582915366564
-0.2432016056942657
-1.059253771939973
0.1625637488701162
0.2885960948578105
-0.1795625140481321
-0.1881822027352539
-0.2160311239118903
-0.06621917345127634
0.02325496051352126
0.04283803338740923
0.003302256017761823
-0.161886898941559
0.02632669317423163
-1.370096997369784
-0.08684764014999842
-0.4798315988810716
-0.3360776390856646
-0.2139747185508225
-0.1805087308778529
-0.01692775594990419
-0.01543254273953991
-0.101078878282364
0.1753459749393967
0.3841199760520247
-0.1990481796503638
-0.145477413601194
-0.2190867256988719
-0.06340865327563103
-0.1555375521657165
-0.1695567715763909
-0.1275252874943953
-0.1194207410736391
0.4627940776395383
-0.279122072815489
0.4344587352019562
-0.5905729872593873
0.07332257550743501
-0.1928916805777788
-0.06757752634492513
-0.07782688738888938
-0.8932302957026124
-0.2134600593388537
-0.1936201952042311
-0.3535422552659989
-0.4654016877641382
0.5697860207958865
-0.2152936203135885
0.002642800307958151
-0.0673926264546502
0.3464223564155936
-0.03497639679045694
-0.1292620858055848
-0.1823564284485494
-0.06357224495299278
-0.01645998580973012
-0.2004821950213271
0.1989565783938686
-0.01287381247290644
-0.0983270655645961
-0.1759937099114506
-0.3220700383779403
-0.3080409723080738
-0.0731700589177695
-0.009964140027781246
-0.08273777691246045
-0.6466179923158991
-0.6781060956959433
-0.3293914542588993
-0.05890804228895168
-0.04957848995646504
-0.02474262426824133
-0.06982211162929942
-0.05508606574884262
-0.3663571426811099
-0.9669942299871725
-0.009889220760839583
-0.08497911966763004
-1.149201882140424
-1.044664763283218
-0.1103964115507438
-0.041545970667053
-0.06792640742161649
0.3876190757350623
-0.3387056511512382
-0.04897403637964753
-0.6065911314673681
-0.1287318294918637
-0.2482432984501275
-0.2150929040739733
0.4729816317859572
-0.6371967957345683
0.0778092126229124
-0.02869324419782561
-0.5686459933194241
-0.05422581200752692
-0.3677837836605208
0.1105995188595842
-0.1932752938709079
-0.0611623852659872
-0.1327238116761678
-0.3558240634512611
-0.08262186120818932
0.5163663261164284
0.08719715992922568
0.4688534590203459
-0.1041273865827079
-0.2062485338733535
-0.5123636863220173
-0.135590983265823
0.02438996831588774
-0.05528961852039877
0.09906731648355029
-0.3002636291355115
0.2365170442269028
0.004536753656192445
-0.002782034463009435
-0.5067613824915611
-0.1814954247913808
-0.08556959898742655
0.5815978294872363
0.1398014950558083
0.3416491694938596
0.225257005023983
-0.5687950534818164
-0.1920360623589058
-0.2256964497060344
-0.2205022148735091
-0.0619610643761055
-0.6863447340805101
-0.1882980654800162
0.303913733742943
-0.1887772771021019
-0.0114694961460876
-0.1620984898521997
-0.01158982163850425
-0.164891001632649
-0.4449679578900265
-0.07581784604617209
-0.2075132987764505
-0.07250088121070546
-0.0942549047590754
-0.1388886924094686
-0.07204205882203042
-0.4448174408380609
-0.4087592800764999
-0.02298750661898584
-0.07745813984062945
0.3312964642899822
-0.2515431233738056
-0.1762107379510288
0.5233636891232905
-0.1994533574494849
0.02171111759305663
-0.4556021611318364
0.05247842774034035
-0.05963355090632447
-0.1393898003336476
-0.5919991279598126
0.1571948601896409
-0.5735895265483114
-0.5416042945149475
-0.1009575763163405
-0.5142533177130366
-0.03633731700478251
-0.1462161591612982
-0.4164529673526797
-0.01607909243045086
0.2888705502370794
0.4900922014093903
-0.164593701449043
-0.005488175980044861
-0.08710926476333393
0.5249959590531708
-0.03238076934184019
-0.4454635617690478
-0.03202806350641025
0.4624266577175565
-0.01716709266608593
-0.5506906631325444
-0.2475451858452759
0.178680552743922
-0.3152050598113459
-0.1825489861059814
0.04683203748684567
0.03149655573548901
0.05664815310334931
-0.3040585007230476
-0.1605566373233011
0.4128580487684255
)
;

boundaryField
{
    FrontBack
    {
        type            empty;
    }
    Top
    {
        type            zeroGradient;
    }
    In
    {
        type            zeroGradient;
    }
    Bottom
    {
        type            zeroGradient;
    }
    Out
    {
        type            fixedValue;
        value           uniform 0;
    }
    circle
    {
        type            zeroGradient;
    }
}


// ************************************************************************* //
