/*--------------------------------*- C++ -*----------------------------------*\
| =========                 |                                                 |
| \\      /  F ield         | OpenFOAM: The Open Source CFD Toolbox           |
|  \\    /   O peration     | Version:  2412                                  |
|   \\  /    A nd           | Website:  www.openfoam.com                      |
|    \\/     M anipulation  |                                                 |
\*---------------------------------------------------------------------------*/
FoamFile
{
    version     2.0;
    format      ascii;
    arch        "LSB;label=32;scalar=64";
    class       surfaceScalarField;
    location    "1045";
    object      phi;
}
// * * * * * * * * * * * * * * * * * * * * * * * * * * * * * * * * * * * * * //

dimensions      [0 3 -1 0 0 0 0];

oriented        oriented;

internalField   nonuniform List<scalar> 
1171
(
-0.9279099721817887
0.9279099721427815
0.787427539850344
-1.099251774768906
0.3118242350695079
-0.1896440093325353
-0.7658353377323339
0.9554793470555596
0.07209002373690568
-0.1173058418043676
-0.2124172452347955
0.3297230865793473
-0.7874275314404179
0.06942332627608035
0.7180042051768376
0.8114195891569219
-0.177994229088844
-0.63342536012679
0.8740682515888144
-1.044200099032173
0.1701318474795904
-0.2854379616092405
-0.09788595735698195
0.3833239192940321
-0.03645711659845039
0.5489814135188749
-0.5125242969988505
-0.5064057183441537
0.8262485525053905
-0.3198428341455381
-0.4027437977220014
1.045807051370845
-0.1717387998787015
0.3920762250940206
0.05008326901638416
-0.442159495063108
1.045926295923259
-0.0001192443019421594
0.4438865791339292
-0.05181035660632193
1.05646754908173
-0.01054125684552746
0.5802877965184998
-0.7699317998327543
-0.7241110620916996
0.5565905361317134
0.1675205258934318
0.2145221579391357
-0.7209278825410441
0.5500295937016085
-0.9226169375916831
0.3725873431795361
-1.094213330038388
0.686606243794642
0.4076070863515776
-0.5955991184317369
0.5591420083961269
0.01732168541252894
-0.2559109888457045
0.2385893025324901
-0.02253360319507377
-0.5233350496614187
0.5458686526779464
0.4003887888686359
-0.4982747400256165
-0.918965465766918
0.9416647747086451
-0.02269930892441099
1.067703109538013
-0.01123556240604071
0.9348565871416812
-1.116665214327279
0.1818086271222341
1.067151610310048
0.0005514948668669786
-0.6644129848188146
-0.05969807613472997
1.262243930977052
-0.8643053429628167
-0.3979385880153617
0.1481861396596345
-0.1099273555441888
-0.3257592149289186
0.4356865707451405
-0.2855112469072171
0.1918471439649297
0.09366410336308242
-0.5836914317666849
-0.5155603467131379
1.014070065997819
-0.07921347918217861
0.009881693202551466
0.8254983120610673
-0.835380005226337
0.5717448200022326
0.6904991134450161
0.4390540627584782
-0.03084642385258968
0.4312352127457258
-0.8080591608600116
-0.1025235733398787
0.9105827341301639
0.5020696221809849
0.2539785038695692
-0.7560481260620258
0.006850858386868863
0.5289438364887572
-0.5357946952957662
-0.4899965569738469
-0.6042167751873891
-0.4227520159561305
-0.693913197759389
-0.02719219328655625
0.2706191740944655
-0.243426980065635
-0.9247499921009849
-0.005091862972569266
0.9298418551191593
0.3086333877718431
0.07469053868684197
0.7615982747779003
0.04982131057063006
-0.5330083252480535
-0.06259079080032481
0.04599560723632079
-0.8540547690041174
0.07588516811191408
0.8632710649694622
-0.939156233066941
-0.3468235687362324
-0.04096759733127349
0.3877911661656414
-0.682045763924415
-0.2427042243637015
-0.6343595223610133
0.7102446885475118
0.6143881064084223
0.2118604402242497
-0.5433707136842891
0.9456370099788325
-0.7789430032230498
-0.1666940067211511
0.01091449576957024
-0.008731684968610315
-0.00218281077118722
-0.4034830798283226
-0.09479166001846746
-0.2410104347452319
0.8553985360887655
0.04812300242256633
0.3344859471940825
-0.382608949234695
-0.4613511912625399
0.9634208100159141
0.6804591233990137
-0.7829826987943326
0.3198068110281359
-0.01608230148180193
-0.3037245096893776
0.9307304378512182
-0.930730437836737
-0.7811940350953589
0.1109707148924606
-0.3233879558401155
-0.7499280800886451
0.7598097752347575
-0.09053182766981177
-0.143372463666411
0.2339042918757879
0.8649089462453365
-0.03941063124922602
1.05442787502125
-0.8004493767207281
0.1866813474630185
-0.3162524613000965
0.1295711136888593
0.8585421688841913
-0.09694389463812432
-0.6114156955049115
-0.0390612097651523
0.6504769052984994
0.1234435962787833
-0.2305052436065424
0.1070616463671117
0.8055886695707963
-0.9835829014289181
-0.4344345256537191
0.3291994093475579
0.105235115871031
0.5331117752227224
-0.5556453809575911
1.02190909547394
-0.4561997532870423
-0.5657093421789448
0.5991570784210464
-0.7193318848311909
0.06661096218974635
0.6527209229459274
0.1024940386838621
0.5695724378938962
0.05533401280487076
-0.6249064508128624
0.1946351089817376
-0.08366439373648797
-0.4922513011448732
0.1454277313959444
0.05023903680195878
-0.886443550611796
0.8362045137486236
-0.4732517753100068
-0.713225677613026
0.04881269449268532
0.4372134466189013
-0.005978230452392255
0.3000031806693209
-0.8552727641856035
0.5552695833446641
0.4157553042874966
0.58424469565791
0.5605092488415401
-0.5145136463212573
-0.3679298195204003
0.03905366553709103
0.328876156275238
0.6812807014673878
0.2494497370402502
-0.5667178814150975
0.5735687401109522
0.1114542322589847
0.8750119898742623
0.01019054823303838
-0.6216062419091415
-0.7490731858310852
0.7993122221378575
0.5305112325431702
0.06996579885326729
0.3014382729245023
-0.3714040719483147
-0.1674485274639934
0.4447240136372442
0.0842198316497919
0.8748003258004449
-0.8049337542739075
-0.0698665715933403
0.6353171216666267
0.3103198900264619
-0.4306752729745333
0.5736981728324804
-0.5037323734706082
0.417112844091673
0.1329167457081177
-0.0467286400883149
-0.5934584043637474
-0.1385522082739742
0.7320106126522692
-0.149764728128331
-0.7809657067394383
-0.6110033741853416
0.3603051684833297
0.2506982066468736
0.6219262475588988
-0.6117356997938735
0.2391912576060666
1.011447820514003
0.04298005407272946
-0.7490731874736626
0.232513429868696
-0.2215989300270293
0.6804591241171669
0.8017485802054963
-0.8017485801492894
0.8376308576892083
-0.8330961204902538
-0.00453473726359734
-0.4453519773162758
0.8611072819782758
-0.1472850808985986
-0.3449662177537526
0.7347478046715333
-0.6685445168436063
-0.06620328777198793
-0.7358251944109716
0.1423667913502865
0.1390417248681807
-0.6720500497481524
0.7829827090282774
-0.9504312364394736
-0.3686857205042858
0.2893643040315206
0.07932141781759544
0.1457748372038222
-1.010091308258751
0.8643164710296013
0.4811120783496485
-0.04205801552658686
-0.3080904007257218
0.586308111134315
-0.2782177105193041
-0.7386029728910163
0.8843778121631147
-0.1570167535596489
0.7311194276017783
-0.8416297275709744
0.1105102999371014
0.9762710051515113
-0.5392378353784791
-0.4370331697177678
0.7550199385809214
-0.06501570284810908
-0.03296077258021069
0.184649534357347
-0.1516887612969441
-0.7758164701194532
-0.8400959299441132
0.07426059869173587
-0.7499280797011995
0.5136760232184521
-0.554643617883538
0.1002353865603596
0.7174776458637897
-0.817713032547142
0.7536079350009046
0.174302021616829
0.5029269262860137
0.4970730737342012
-0.05234045758777523
-0.6125389591724246
0.6648794164718708
0.8827557501328588
-0.007955427527626355
-0.7550199385945281
0.7993122220715018
0.1915595260075847
-0.4474705175756543
0.01391959614689229
0.003796236534892054
-0.0177158358404306
0.5886410289046892
-0.4374598195915982
-0.1511812096916935
0.7180041998459435
0.01007395212947881
-0.1089765022379372
0.4380964853081897
0.1505445424351173
-0.0164744605310941
-0.006669843991531236
0.02314430462513083
-0.03093537466484899
-0.002025394541022595
0.2455642441756986
-0.2616465559697205
-0.9587653332719643
0.001356516419400932
-0.1594531111922773
-0.1231214749029277
0.09446185531497236
0.7224103698549804
0.7289719357677886
-0.1447272399159332
0.6746857977475722
-0.5744504089619961
-0.2118235010514225
0.398504849824143
0.6956229168795053
0.02238128298531076
0.2418244665801362
-1.07492058874409
-0.9504312355782353
0.3026551538931867
0.7598097769781469
-0.2092230810349867
0.06585061441606702
-0.7237668856260395
0.9110605062166425
-0.1872936206047428
0.4155407468506864
-0.02774957494883792
0.7711888095495587
0.2806681134450358
0.3760774071363054
0.06780918283456222
-0.6587079693090426
0.6587079693271259
0.2146822954739434
0.6959004364675706
-0.05639768603338792
0.390883631578376
0.3792888825632576
-0.0147548278417365
0.02867443469358039
0.4483983545582926
0.03271372661241966
-0.7386029720528423
0.5339920089325174
0.2007557939663667
0.3007421360624852
-0.1160926041075736
-0.69562291636925
0.1798836274362206
0.7311768787860443
-0.01018325105961655
-0.8136484126422489
0.8238316637156724
0.6963969074441673
-0.7919922745455129
0.09559536706058318
-0.753607928935677
-0.1502906885677825
0.2117563983733708
-0.06146570909764596
0.07738306082964598
-0.1787411478022539
-0.1123370437104179
0.2910781907142765
-0.008482838116790979
-0.007991616298302933
0.7062961974284732
-0.71647944124272
0.8868292853361259
0.0686500672340391
-0.3106807854775197
-0.5233518818782287
0.8340326674907375
0.1031641959676854
-0.1031641980006872
0.3284179643977601
0.4774745167483499
0.60941724748881
-1.086891764300087
-0.1941004315077844
-0.585532198749007
0.7796326302438474
0.0126386579276845
0.2212656275160847
0.376346588049477
-0.2529030036171029
1.015660295872551
-0.5381857822886945
0.6681049152717644
0.9922999602008107
-0.3828827158465239
0.2290615115904292
0.8843778142595067
0.7126390129709286
0.2138717937281583
0.727792977512813
-0.7809657061002668
0.3412920204598912
-0.2847498924687859
0.2601635323182855
0.02458636161165832
0.8512725065162262
-0.006565111335773908
-0.8447073953748959
-0.7020977518931298
0.7026492444855216
0.554648021255845
-0.7020977535815789
-0.7126390129659081
0.7026492425382345
-0.03360611263813205
0.9073317641300808
-0.02050247545332964
-0.6812807111660952
0.6122369465254576
0.06904376464638126
0.5386330554948391
0.5385097998136368
-1.077142855319059
0.4876372508142892
0.5280230440881194
0.5483479506665517
0.4577436182732803
-1.006091568986398
0.4934888051106927
0.4988111539994821
0.6122369532638731
-0.5256966796178435
-0.4666814395296533
-0.5559663542817185
-0.5141653729308521
-0.1241520765521367
-0.01282288852545995
0.0128228892556182
0.509589567536749
0.5245370999035236
-1.038702472933594
0.572312591475894
-0.2708743166296301
-0.8829619538237492
0.34372411909815
-0.6327378262915845
0.3900336033102745
-0.0001228062688547957
-0.8267086644214462
0.8268314707372357
0.4208815422852464
-0.02500771068148693
0.8762802184245961
-0.9450403121813715
-0.834098094480009
0.05679414960325902
0.7773039449561578
0.5533675544693244
-0.4374329790147226
-0.1159345754644718
0.6501727814777011
-0.729386260062059
0.8860564186624074
-0.8269544664833611
-0.05910195198620934
-0.01445118742009444
-0.7904825697080367
-0.1112776218488954
0.7143418166790425
-0.6030641948393114
-0.9414750717651265
0.9270238840711909
-0.7333526822064269
0.6882301167829518
0.04512256545255325
-0.8010764391079719
0.02776504057722136
0.7733113986150688
0.06188811451877274
0.04127608431049262
0.4329199271761033
0.0589839058165915
-0.8499540071518541
0.7909701012409086
-0.6457228140958056
0.5933823533342614
0.8891464968412646
0.07351214028778665
-0.9626586371698267
0.05504840507894351
-0.05047649613593663
0.3793526473165449
-0.3818147633769582
0.06556230032438159
0.8405135621293178
-0.8406363713207643
-0.7324263661815269
-0.8126802385105926
0.02219766853214495
-0.1678149460628196
-0.8477497462016967
0.02079527390629883
0.6228423812455014
0.05184341844311591
0.01858974965344926
0.5347777986130015
-0.8157901473819122
0.8435551914856727
0.5657093434780712
-0.8517163790729294
-0.8679629297013443
0.03936883801911328
-0.03006435210763411
0.8338875447900066
-0.8038231926467397
-0.0209182824577933
-0.7624907157641452
0.5442838717559803
0.1521130400341963
-0.0180973995535342
0.8943776173011875
0.9838180351198224
0.8611895811316361
-0.8403943098711516
0.1477494559487131
-0.147749457269235
-0.117548893936484
-0.4643454101784972
0.0269124281771359
0.2711547219671975
0.03150043222110873
0.386151352361892
0.8734593367414925
0.007750419466701345
-0.01623324931281087
0.6585942523310607
0.3414057476860761
0.783595047283737
-0.5836914335248029
-0.7780680916879874
-0.8103882994177906
-0.6799499291674783
0.6799499291731362
-0.1682289363447269
-0.1551590147952954
0.6020189853601948
-0.8112770378099852
0.2092580524733911
-0.4940539663197093
-0.5688409376561131
0.2780063675026343
-0.9719195656542984
-0.8985907083151159
0.8394887486888942
-0.8184238170827218
0.8406214863891718
0.6484866888040098
0.1344015288201428
-0.7828882176400745
-0.7652657342138077
-0.1464242113672732
0.7253660682909384
-0.578941856949321
0.02513137434983907
-0.01209454788722726
0.01556200335774847
-0.00346745460013576
-0.3523680470185526
-0.1119773600917661
0.8800253557748801
0.7407024487307302
-0.2395777336051105
-0.501124715550943
0.6247678769949495
0.6857488373054892
-0.4710665429788141
-8.926223180833175e-05
-0.2854219860246604
0.01202121075148586
0.7487518132288573
-0.7607730238088432
-0.3234328741161669
-0.07215407420854242
0.07621620304088103
-0.9676465071362463
0.1229391139299865
-0.6768755046831328
0.0543964261806261
0.6398799269757224
-0.694276353169857
-0.7563360117826079
0.07946050709977556
0.5894010378379304
-0.6615551119708697
0.156620500528027
-0.3353616492083361
-0.7722999959645889
0.007034261710108299
0.3711107250643827
0.5997988852281673
-0.02610070933839978
0.02044166132327347
-0.02044166215325932
-0.01949271971579652
-0.05151982873454099
-0.2332300545660686
0.0233688235627942
-0.01561842826940102
-0.7204565797245619
0.2793767451592599
0.6786999993759376
-0.6897012303466059
0.01100123114214739
-0.5956565509016329
0.6500529730783893
0.6546070241380244
-0.06520598485061246
-0.6307990779642223
-0.1255369365036873
-1.050020319154897
0.01119998832145679
0.1365494720945459
-0.7084353696941282
-0.7420767035822741
-0.7639898595605489
0.3660512734743639
-0.405579323702191
0.464831764905471
-0.05925244102530656
-0.6697399243385892
-0.03869544530696255
0.4998730334715644
0.7306842816408166
-0.2354415478956054
0.1123200738475192
0.9606122479878576
0.4464544844071237
0.1321547878332855
-0.5786092722982773
-0.6769745305811664
0.007234608544332818
-0.04445856142483871
0.0323640005874298
0.6373146027895038
-0.7758668107471532
-0.002541008889792567
0.002541008687359257
-0.6002378251560959
0.6497345308486018
-0.04949670575281041
-0.6583847829276132
-0.1138170725451683
-0.6717586740911151
0.0566988597190104
0.6081805521772955
-0.1376520362444713
-0.8181828854173812
-0.5692914858836
0.5721845694229699
-0.002893083410354358
0.6297884713263382
-0.6187872436717464
0.3224179299475609
0.2136047142448511
-0.5360226441918545
-0.104762099216136
-0.6023356488697701
-0.0919407050882405
-0.1537833359173293
-0.5125926299820386
0.4043289877894354
-0.499120649514362
0.1261322704890156
0.6787592816646592
-0.8048915521156321
0.5991570784172984
-0.3733339577676176
-0.03224536947817472
0.06322446035918036
-0.5758170922800482
0.5513645091325111
-0.04040448704499081
-0.5109600222216799
-0.3129868213625183
0.3056336902239953
0.007353131944662351
0.4511314620733461
0.1211811290082574
0.0522713756289229
-0.3164242266955762
0.1574404096797569
0.1589838171778613
0.2490698280661881
-0.01655640287451453
-0.2958468817161918
-0.31229429463992
0.3552611265865029
-0.04296683006944499
0.7910440279876906
-0.6284111701620128
-0.02997361299080197
0.4994439340030667
0.2854874958592079
-0.5250652290307881
0.5774468169847539
-0.5774468169841578
-0.2897808713954624
-0.5865062589803139
-0.2955399653782455
-0.5865062591545164
-0.5966073592441312
-0.8384787999102301
0.1699342810137472
-0.6014987345553908
0.8211945620392256
-0.003279109319022007
0.1183238320360652
0.4814750547913579
0.09676769078572967
0.1858016308467778
-0.03627445506650879
-0.1495271747531374
-0.02931417349993215
0.5901897383762508
-0.9424315336262357
0.4190796483044997
-0.006319224841773254
0.000751969899400143
0.005567255590345895
-0.6441478422748472
-0.1321246248307294
-0.4667212039280201
0.5988759943807915
-0.5035114720751146
-0.3175636664216396
-0.2582534112342003
-0.2722240798712218
-0.1115084044408756
0.111508404801015
0.1535911441198237
0.05816525678295688
0.1970016228204751
0.4482753562387326
-0.569455296040335
0.1027340889578076
0.2538443078100649
0.4663796863531796
0.5336203142530457
0.6456537249099139
0.08303688130253697
0.001610911083764009
-0.08464779128922452
-0.2771077793819406
-0.5410751060901785
-0.5462508728852901
0.1147896890732757
-0.1266280792287555
0.01183839054678906
-0.1056580071620872
-0.3853707047907265
-0.04999716942127918
0.658177738752821
-0.4994741080674661
-0.1446737341711797
-0.3262953481166275
0.2859873099531308
0.1289464140265389
-0.6131458525149922
-0.2045033992935513
-0.262923351975178
0.001276812176299991
-0.4209800450532238
0.3227072323462836
0.09827281298209557
-0.09113941803580419
0.2917232572907426
-0.8959400337534434
-0.4573859211663563
0.6288635623349159
-0.7732211406274346
0.6684590414472068
0.3404071339016632
-0.1251955536533905
0.2242824065474975
-0.09908685356998639
0.03126572571690501
-0.5861912892338459
0.02874890894595518
0.5574423800582332
-0.9006185674201822
0.5477502123761272
-0.6652991062823504
-0.1029427886683892
0.1093879584913148
-0.1093879608526672
-0.3165134905364441
0.3590230343057753
0.02032960803235516
0.0223450588149391
0.06069180760189747
0.5044105242897493
0.6678121217953151
-0.7376786955107913
0.02614128934126055
0.01979937162472108
0.0006422829188634137
-0.006460981951552803
0.006460982586210869
-0.4099019606485035
0.5310830878747906
0.01573077238977324
-0.01573077228163437
-0.7926681283297816
-0.06033309895700593
0.1222212068007958
-0.4522245418645685
0.5549586287381978
0.4503377021461786
-0.4998344038755478
0.1501879687819837
-0.1501879697480623
0.04179807472518796
-0.0131236344082562
-0.04165771358496367
-0.9758626071946338
0.5388294389713615
-0.469154406276985
0.04127608283355207
0.5151783431911588
0.03047672715242207
-0.5456550705304768
-0.6164083788442463
0.1169342714212502
-0.3291847332117509
0.01360162932197272
0.3155831032377596
-0.1548679568629058
-0.08057360231034481
-0.5409848017453633
-0.04520648181003849
0.1365494733593507
-0.04092121914085327
0.0383802070128345
0.08126176823876324
-0.08126176542828473
-0.5271339123962324
0.484167073291585
-0.4148579454185022
0.1612966596403563
0.6222983876855785
-0.09713421714676428
-0.004879652823384569
0.004879652706047417
0.5329906400014727
-0.07836805106139708
0.006223759042950578
0.02716151515434968
0.03481511435770263
0.6887666212715157
-0.7671346724889279
-0.6601292880213924
0.6301556766174773
-0.1101313482318446
0.3138817931568833
0.7455475202248357
-0.01949271862718824
-0.2653222460118673
0.1492296506959493
-0.7446046355247631
0.483782900230585
-0.4260683638533135
-0.1012300284517011
0.003299072377285997
-0.01458796794583736
0.02497975576223245
0.4120026118766349
-0.1215894734545968
-0.389370548630693
0.6290484110434875
0.01928385034314011
0.009024041768279978
-0.00902404167854161
-0.3530043356201474
-0.07885855162241065
-0.560314020685231
0.5570349112067121
-0.2375325941519123
0.4647186458486001
-0.1506391024813763
0.7309269022982974
0.6696502425568391
-0.04092122030827876
-0.6171098327292349
0.560673740499353
0.281992532032952
-0.2771874560382906
-0.004805074910714597
0.5390162612549015
0.09344366808396766
-0.0388029409942711
0.1963329386400272
-0.1575299972034801
0.1200647126003482
-0.1200647102298373
-0.858621807724128
0.002438506652472987
-0.1133372266199795
0.1404987407144076
-0.1315496977034828
0.1315496982816292
0.0197993783668888
-0.02437237803517695
0.6705045273202848
0.06067235210914355
-0.3226905989278491
-0.06268010548579143
-0.4712942526637505
-0.04430281596894661
-0.1513391072281642
0.151339108185336
-0.04284971139356251
0.1436416203794904
-0.143641621130576
0.1363913851132284
-0.1363913834520128
-0.3161526061057071
-0.1145226668083721
0.2260389354823268
0.1031604734465301
0.03479013772442158
-0.8212366448733519
-0.197985140677946
0.1699334818550674
0.02162603903673033
-0.2643595327884363
0.1261826133447423
-0.1261826140003676
-0.4143197994528571
-0.0848008477690632
0.2357914165026879
0.002797882383972168
0.04034055046010565
-0.5446208359850524
0.5782269486119247
-0.03184333197533967
-0.01100637793453305
-0.02479868255315995
0.01167503948505315
0.006546328983400219
-0.1847104680930552
0.1781641391612743
-0.1079447515371222
-0.2274168965760126
-0.144416811651999
0.144416812447874
0.07243997419035049
-0.07243997384821634
-0.01898695348828945
-0.1085731933572792
0.1275601462881033
0.2341769642250389
-0.1834157055535166
-0.02267382784269919
0.02331610260864056
-0.1289350017094333
0.6131020755591972
-0.03906843406114006
0.4260236345392069
-0.04168940081019202
0.06483369444241151
-0.153126978612991
0.1531269798824295
-0.636550189082869
0.3081766531067411
-0.0791151418174092
-0.23416338851931
0.003658141625117984
-0.1216936463656827
0.1620341976364418
0.1946570287014485
0.09642115884663557
0.09557060878641235
-0.06075549459573461
0.07314429498767767
0.04164539325802701
0.06415817329035407
0.1057753125473245
-0.09997198469481325
0.212292075109579
0.01156505421066773
-0.1155904052874668
-0.1013275440445005
0.09630744556779755
0.005020097597227271
0.01077533393135181
-0.02240555576671963
0.03736562225304209
-0.03736562220562597
0.07463929208622276
-0.05532162880684897
0.05532162904828782
-0.2243743519058873
-0.05075670910415369
0.01178732069798911
-0.1031457961816282
0.01632667431481701
0.1088054067700085
-0.1088054072125032
0.2929298423624564
-0.2708380539738318
0.1628932990879928
-0.05060591311262373
-0.2202321404541585
-0.01686781780655443
0.01686781755375071
0.367545811786645
0.2851751050230774
-0.5279761076838658
-0.09392829998197019
-0.03269977932467959
0.5288424668097271
0.2093782686540073
-0.1689010864856546
-0.3810056745667978
0.07658992651905469
-0.1472289314300137
0.1868405490396501
-0.03961161739676765
-0.06716002646306045
0.06716002619565847
0.8221374467458944
-0.5603339865885114
-0.00357487951235359
0.0143502142100369
-0.02004129144799256
-0.28728364089695
-0.01745901154411794
-0.01286711495186839
-0.1321345263475996
-0.5722965710159496
0.5560951018625563
-0.5686412813363083
-0.00692229555652665
0.09904159316797367
-0.001787873623965057
0.01673559531245106
-0.1672702233084206
-0.3361866971195103
0.2330409008521093
-0.05406131177205183
0.03507435682383843
0.1322057679510842
0.1734279235562545
0.3418485367766171
0.2759830287372994
-0.2777709027730835
-0.06294733959534329
-0.1550778697393128
-0.2205617639563446
0.07455910956870185
-0.01040093473066204
0.2136034704448628
-0.19686787552942
-0.08623719724097285
0.1593814966470951
-0.3550365660786466
0.208135909442338
-0.1918092352177441
0.08964968987981035
-0.4790202346114211
0.1739734343397329
0.1706654573346166
-0.2569026600043662
0.07316504792022105
-0.1948163424492393
0.1773573312682861
0.01737719952506887
0.1420042964391992
-0.03959084682425849
0.06581528574588402
0.4671753546713084
0.02049780024468677
-0.08336319350245366
0.05538131516389441
0.1259107684191036
-0.2601733830575004
-0.2309515749888965
0.559720123805271
0.1570129039546819
0.07877851369110628
0.07488317917854523
-0.03107547494447431
-0.001420641899923458
-0.003384424943771449
-0.03259858942537168
0.170709267475068
-0.1776315634120042
-0.05838344020568759
0.01974122850240888
-0.1470886677080339
-0.05281205227998791
0.1539086242117261
0.2770518793364883
-0.04059854075589847
0.0102543988079436
-0.2551664798704933
-0.1313303082047812
0.2362277572101904
0.1786433334585639
0.1295333176394856
0.02179422970168778
0.08849170982767215
0.05223974195726968
0.4521707823654464
0.0165851563027695
0.09791884060485176
0.04299952445435705
0.07229062484228388
-0.115290148311504
-0.2428010002488525
-0.2004375686515603
-0.01979457446235318
-0.2019683523133036
0.2749610494159223
)
;

boundaryField
{
    FrontBack
    {
        type            empty;
    }
    Top
    {
        type            calculated;
        value           uniform 0;
    }
    In
    {
        type            calculated;
        value           uniform -1;
    }
    Bottom
    {
        type            calculated;
        value           uniform 0;
    }
    Out
    {
        type            calculated;
        value           nonuniform List<scalar> 10(1.03598520188542 1.064329734886418 1.022647793809256 1.021511850240354 0.9962534172055644 1.012976527019537 1.034126667884409 1.062894903976631 0.8672276924783022 0.882046224369748);
    }
    circle
    {
        type            calculated;
        value           uniform 0;
    }
}


// ************************************************************************* //
