/*--------------------------------*- C++ -*----------------------------------*\
| =========                 |                                                 |
| \\      /  F ield         | OpenFOAM: The Open Source CFD Toolbox           |
|  \\    /   O peration     | Version:  2412                                  |
|   \\  /    A nd           | Website:  www.openfoam.com                      |
|    \\/     M anipulation  |                                                 |
\*---------------------------------------------------------------------------*/
FoamFile
{
    version     2.0;
    format      ascii;
    arch        "LSB;label=32;scalar=64";
    class       volScalarField;
    location    "400.5";
    object      p;
}
// * * * * * * * * * * * * * * * * * * * * * * * * * * * * * * * * * * * * * //

dimensions      [0 2 -2 0 0 0 0];

internalField   nonuniform List<scalar> 
808
(
-0.03266509916181635
0.0436796887930925
-0.01116861188399283
0.03831465112384087
-0.2940149412436989
-0.05579460529848736
-0.01575639494867993
-0.02404967402174957
-0.1932148333314672
-0.08202443641734561
-0.01052183358864811
-0.2498032986923146
-0.03067799722468813
-0.01421178595885963
-0.1241167190722971
-0.0142003423020624
-0.1406475119226943
-0.01374946907443271
-0.01296118415240187
-0.05424094312265797
-0.008116080002182046
0.1162362856103362
-0.0639395655408154
-0.06986809598761291
0.1737871270151486
-0.1007134711721098
-0.1493787435081808
-0.02049498812840186
-0.01764787345291617
-0.02557958122452118
-0.02040383807301894
-0.05692728438582473
-0.02276611519956801
-0.01696640573762906
-0.09759127529930815
0.3452210578492322
-0.04016162771578827
-0.01644692776455621
-0.02233827141371088
-0.02648675217003142
-0.088443681398711
-0.1239817119980825
-0.05317498707811993
-0.0214505251690333
-0.05502763080077849
-0.04304114128833963
-0.01187600039636049
-0.1809097349988864
-0.02632085970521531
-0.2003267567732735
-0.01726511490425848
-0.06540623382508816
-0.06219386474893245
-0.01496379915149279
-0.1968899507023261
-0.02754517239652352
-0.01086264761707424
-0.0151634754458289
-0.0980953386045063
-0.03872619697584932
-0.1114200784123831
-0.1231818002233141
-0.01460935356624545
-0.1263464244883803
-0.01754884347139141
-0.05295052289491783
-0.160179655883213
-0.03536517256574673
-0.01542817685286363
-0.4344189929896207
-0.02599108330372085
-0.2958680029224465
-0.02119837377246831
-0.02111646471595757
-0.06180243892075518
-0.01827442392209539
-0.04141902785261878
-0.3684886082634556
-0.03665284278427946
0.03781920392668175
-0.09284086360846079
-0.01669372909468179
0.05731629575214169
0.04662688573374904
-0.01762365966155728
-0.05100275097406385
-0.5345625809145874
-0.2303312966584026
-0.05076587725504431
-0.1142506565864857
-0.05500383053695902
-0.1298846606980885
0.03767302017662198
-0.02720271549989015
-0.06332040497974546
-0.1176448206871529
-0.03818785862192284
-0.0523314292918975
-0.1137172091909459
-0.1364437162968539
-0.0532238208141042
-0.04614848654318564
-0.05301051470325174
-0.04368334944936491
-0.05663515654934898
-0.07608788632364454
-0.04007804583630535
-0.01074290899109583
-0.0393265359188851
-0.1210335874527583
-0.04936545608867587
0.08066924712322103
-0.04151207892408735
-0.007860566113046773
-0.02751957857980307
0.1811684667636224
-0.03762142089547119
-0.2633955422869695
-0.02079055220828691
-0.05208501910576444
-0.04161663154091486
-0.04991676601169889
0.01449840292811238
-0.04707371166634387
-0.03734678367487328
-0.2214735031303357
-0.03930250959590722
-0.004337866857330169
-0.07382936154734297
-0.07031958864215639
-0.1460494066170334
-0.02119202008540764
-0.07362378224734506
-0.04499878215212742
-0.02307034994615704
-0.014519698240465
-0.00607492088828861
-0.007477211986879827
-0.05150352601635289
-0.04839015356769961
-0.2189317636165755
-0.05478778100104102
-0.008111402793213315
-0.02164450569731481
-0.1502521878637335
-0.002484877918299845
-0.07459972201313783
-0.02023222029139952
-6.443996561347145e-05
-0.01079242674731021
-0.03260939899269166
0.0924385682453468
-0.0374228309752307
0.251131649404044
-0.2636933439490349
-0.1348837176684693
-0.0381335920972837
-0.09093815385191985
-0.009243240562168607
-0.1155966462998638
-0.1665873990967568
-0.2185582477746146
-0.1745939861699218
0.05744016429502796
-0.06437513670664521
-0.02063811639721948
-0.06568090914295727
-0.1665703738936336
-0.02281651086030055
-0.01857782303984983
-0.05043105219393034
-0.02149572024681705
-0.007798264889039004
-0.1047334908422284
-0.02366320123693373
-0.04344528296876648
-0.07165385137479018
-0.1579831015874524
-0.03290263308736364
-0.3817631801323357
-0.01792771276922982
-0.2292371645045224
-0.04294533541336088
0.03374599933072479
-0.1068138446070075
-0.01721319802922326
-0.04374219276365957
-0.1033000878662294
-0.01783268182139038
-0.09414980256398425
-0.2052349794009491
-0.07045524078957292
-0.02418542771761373
-0.04630244561437648
-0.04149346542377713
-0.2024987861113317
-0.02246306108666375
-0.01936659587683024
-0.01122749028751643
-0.05815299327583735
-0.04908939999881807
-0.02260317397356356
-0.0206037763174768
-0.2317600449650634
0.1264949503098585
-0.2092151232614651
-0.1853087742461976
-0.01172966136295136
-0.01117986830261757
-0.06620320175083855
-0.01058081077228127
-0.4894408059035876
-0.1238142732570079
-0.01968957716444179
-3.523528292289712e-05
-0.02354934273566182
-0.2748277399219277
-0.2819279751182194
-0.00744085271840134
-0.01738354683117822
-0.001276065875696196
-0.3531855501334835
-0.02858240527156309
-0.02936854469382141
-0.01266205586558311
-0.01939563498053135
0.04792176085269401
-0.1218453437136375
-0.01442436156074707
-0.02096221358186009
-0.04616713952473041
-0.01839978319427566
-0.01639313671652488
-0.02356367105814304
-0.06839698621068074
-0.01090894577152912
-0.01890253727488529
-0.008942817474064351
-0.001144788239270212
-0.02931279103065093
-0.002141544688402887
-0.001927217771524379
-0.00560866290443477
-0.02549937310288434
-0.008050202052802671
0.001539011853136433
-0.004222092286029491
0.001412740541539719
0.002378113331628512
-0.009058712476426799
-0.130140724710341
-0.002897936306192018
-0.000517293223405211
-0.04738650760603156
-0.02146851441981467
-0.02343736055917285
-0.01406715523204527
-0.006254783930599379
-0.02111744400317519
-0.04097719602170647
-0.01505285204532302
-0.01276241875999813
-0.01126191252204621
0.007919167862028455
-0.009669509755989722
-0.01280582347333153
-0.01154578921759231
-0.01007617675543829
-0.01034945157211424
-0.01167918753363783
-0.01351492462742224
-0.2900284505977224
0.0581638118751157
-0.01561433614965888
-0.01465555110415992
-0.01241414950929687
-0.01196204924666521
-0.008326189683438913
-0.09787190510116793
0.01398956054094627
-0.0141634852356
-0.01353616222092929
-0.01048438892358894
-0.05023314062092461
-0.00884139064893074
-0.01362224874287691
-0.0104081618553003
-0.001663496437527512
-0.0118668427849072
-0.01182295800920605
-0.02414357499725926
-0.01528823379278055
-0.01230957996484882
-0.01357817246850745
-0.008993963104973869
-0.01241205794179854
-0.01112055843814047
-0.06057908943931722
-0.01368929216180234
-0.01202376327228142
-0.009245425945805033
-0.0154095943912002
-0.01378899048938295
-0.01561951403839842
-1.360349433704524
-0.1012565000663221
-0.01222826288143601
0.0262716432077179
-0.1597289887293613
-0.0926466596236756
-0.01245749624045375
-0.01421665392778496
-0.2299124080104705
-0.02747768635307209
-0.01691762862733415
-0.01257000069800156
-0.02051669830723625
-0.0101414985093878
-0.03083235319703913
-0.4054959948117509
-0.01216609365925068
-0.0140853045298707
-0.004366899711326206
-0.01124861625024302
-0.0103429715201451
-0.01378235143508505
-0.006482277362954116
-0.02745940602986447
-0.01193608713927665
-0.1761139339094116
0.02091137069770204
-0.007228054245198341
0.004405838878112288
0.01230441068882738
-0.04939000542995947
0.02685323616045873
-0.01325618513425661
-0.131318050095294
0.28314335255369
-0.008100475485534376
-0.01376780036829513
-0.007862217860605663
-0.03287798451554452
-0.1268693438092684
-0.01258931003126715
-0.01185541249132226
-0.01743560999368965
-0.0134850955964298
-0.04183103528921665
-0.222141958976786
-0.00882040598019441
-0.04443644695885107
-0.03811144434431203
-0.1825912738640818
-0.1503076410561922
-0.1474103391547801
-0.221954034974997
-0.002742001499825
-0.02057375066414497
-0.01521217544999767
-0.01390054626365902
-0.03396400063077354
-0.02456047848851567
-0.01390300619753238
-0.01484439614871443
-1.064033502837796
-0.003926864128401408
-0.01314531308189167
-0.01797963761069141
-0.02334316542061878
0.003109936955653756
-0.01478330048458008
-0.02457710349339049
-0.1480234692504148
-0.01357591897349068
-0.0209774421499839
-0.01458772025466516
-0.001185357255501275
-0.1781254766829781
-0.01236046710498165
-0.1572704003569457
-0.01538168554390841
0.002409522529745586
-0.01398988738984495
-0.02444447339849864
-0.01623963920624116
0.007078684704071439
-0.263820625991626
-0.02690600866212929
-0.01682413617435262
-0.01379115841732461
-0.01110222415536383
-0.02901787352765815
-0.01364215307319654
-0.02117818451920521
-0.02034621014575155
0.01110483391667599
-0.09644379499815947
-0.02095933552168517
0.009656519969636526
-0.06050578378985649
0.1866030374704567
-0.1077194951452708
-0.3137166821258676
-0.02988571324836107
-0.0260082370592076
0.1521688239651023
0.0867885580039586
-0.003958388941069577
0.05348901546361151
-0.01495510921569097
-0.01310339982964902
0.002799350347122763
0.006680546973499592
-0.06405821906445185
-0.004684489323812167
-0.05546929582341261
-0.02324061816724024
-0.01569436514466218
-0.03651590871765139
-0.03293000282936152
-0.006694991965423409
-0.01465315299260642
-0.03587240528238122
0.03090066142044481
-0.03861529333235683
-0.01405204649992196
-0.1208493415781471
-0.03080297209674475
-0.04035496580887048
-0.6647646725770484
0.01542725420589735
-0.01027372454869907
-0.005925822527366148
0.183933900786809
-0.1039688123528917
-0.03612205791053259
-0.2400085148992085
-0.01517478607916867
-0.01595217397590844
0.08437733425849082
-0.1781966375274433
-0.2353661868172715
-0.1837070531555951
-0.6723433980510357
0.00757326283486765
-0.01757619075391775
-0.01556523832529527
-0.09574142102848038
0.119065865866979
-0.02161531501625908
-0.231776487114006
-0.03657631294931382
-0.007018993614814825
0.2812191386516766
-0.01077543464564724
-0.08977203777196949
-0.1546356743980771
-0.003766119029911312
-0.0419642649278609
-0.05017398645359895
-0.1944417570409666
-0.007608702787547625
-0.03898879568300227
-0.003575670892508504
-0.5405984986479719
-0.1907778115315209
-0.1803209560006768
-0.02369466868904698
-0.009332595926845063
-0.06288333639248948
-0.05579755489305382
-0.01497876496032687
-0.07035545089730758
0.005417568594300833
-0.01743055322570803
-0.09379590529936659
-0.2800675069240414
-0.009455809102103857
-0.02478581915139526
-0.02113293320610644
-0.07717263746554401
-0.08809519951006924
-0.09054409691459929
-0.01161043233641614
-0.9026242433385554
0.1629001264115558
-0.08200233353838597
-0.2479881087504104
-0.04091047468883251
-0.009111636256470547
-0.2516229339128574
-0.2019406695087801
-0.02995281631581193
-0.1147633706703411
-0.01864953852415082
0.5635364504937523
-0.02550909117815294
-0.2116268821650928
-0.02469861581012539
-0.004110550446388369
-0.01088459853455699
-1.239216548895821
-0.1792063936357158
-0.2241523122347773
0.00517415440512268
-0.04018433282784189
-0.2337197956152739
-0.06775565970816035
-0.05259095056750226
-0.1481334208118645
-0.1767610868466256
-0.07080735381681159
-1.208525652548063
-0.1609473012477222
-0.5471694381986421
0.08043645699810305
-0.005769557827394603
-0.02072257892869595
-0.04551549685807735
-0.03710602152720233
-0.02747493471044488
-0.1278611189176005
0.08221098788247078
-0.003544226432004278
-0.01000630440417602
-0.5583179551212981
-0.8440621861012394
-0.171810607402356
-0.007690470723658889
-0.1231489090828184
0.0003920386786556814
-0.0001545670942260923
-0.002894208664423404
-0.06187621896437007
-0.2309922694338298
-0.01324511788166164
-0.1103383036955941
-0.15819325442643
-0.01307195096267784
-0.03399349144494866
0.03112036777085354
-0.05935447647328233
-0.07296801573907979
-0.4892441886957354
-0.2119779332189946
-0.07890798169859051
-0.07681035834730172
-0.01917301464079837
-0.1118959115474346
-0.1661703963885444
-0.08244484251799701
0.02566300628125312
-0.08832536225895833
-0.05131952239153339
-0.01491219559370227
-0.1140562073191966
-0.2840270005024945
-0.06059436501220408
-0.01785886259396925
0.0005091600832175478
-0.01017761220205938
-0.01040427112815826
-0.239589044691004
-0.01420366007523438
-0.2142227375286229
-0.01063970367643375
-0.07555696031186571
-0.004231530234143302
-0.02328784647936461
-0.3967074626453472
-0.9358356578190732
-0.01123566404927569
-1.034983134812299
-0.597340452879997
-0.01046325108551315
-0.6656244051687831
-0.1907897578126588
-0.005212430514678603
-0.1219402288513348
-0.01686089973842732
-0.1270973771887258
-0.06385052716848151
-0.08180234253583432
-0.005438166216605016
-0.002746905534141551
-1.352283904968298
-0.01156350214938149
-0.1826778834252564
0.001140689128843436
-1.000729559570462
-1.256263394203224
-0.07697347023128598
0.0148600227890708
0.164717888466785
-0.004710089760080084
-0.02296297383555265
-0.004314636407731255
-0.2365379297575143
0.3652257431673259
-0.04270503670704605
-0.2160391326002599
-0.01523701800655706
-0.646685640398532
-0.07099507450401958
0.1874955209312588
-0.30716613091764
-0.05120970660882819
-0.0709629958561907
-0.01581227007727013
-0.02135505821695532
-0.599603723691854
-0.1554617722874919
-0.09594991382742395
-0.1171876682694063
-0.5466214665736039
-0.04580474036669887
-0.8969239947746436
-3.823637457470078e-05
-0.2464856200044175
-1.06045685626706
0.1628700388123359
0.2881504859521168
-0.1724784916507475
-0.1867128230072166
-0.2188473983740546
-0.06534748580883552
0.02516085149609505
0.04276870541699086
0.004277833057779043
-0.1534600397598507
0.02664930884821308
-1.374305022034394
-0.08805008720014802
-0.4827823066723114
-0.3378653136562609
-0.222496529018424
-0.1825986339526059
-0.01696899188217202
-0.01536519377179256
-0.09300900625482374
0.1756862668204343
0.3837634964591652
-0.1994175917813045
-0.1554379137781558
-0.2155609137073047
-0.06415086400250747
-0.1632683044931597
-0.1744710406864368
-0.1287996549848332
-0.1112953418984684
0.4628085793663927
-0.2864647677551435
0.4342682721984201
-0.5854731940670783
0.07426038153486748
-0.1857366568201928
-0.06862761157258156
-0.07938655741832075
-0.9005288386163557
-0.2135344138325944
-0.1947974765137263
-0.3579724889502938
-0.4699685150545072
0.5693521910206836
-0.2182766604754144
0.003707963895053699
-0.06604162139142329
0.346523672905959
-0.03381194549393103
-0.122546501851397
-0.1836957339456413
-0.06440511287889997
-0.01633390346989871
-0.2017736204638903
0.1987735897758108
-0.01268956960095148
-0.09976794270195939
-0.1789738311802649
-0.3225486094566369
-0.3055065141054074
-0.08381888500044025
-0.009603955810602343
-0.08227550349077381
-0.645665071212104
-0.6791844177063078
-0.3223165475006032
-0.05982308648167171
-0.0484796455001351
-0.02418303111573149
-0.07122041963881698
-0.05376879992347983
-0.3715286727416265
-0.9689901253743302
-0.008884290437951208
-0.0863548090697262
-1.152477639532314
-1.049752937714033
-0.1113973854870496
-0.04301259582657769
-0.06693727111472883
0.3873212045792728
-0.3366526225678791
-0.05063198602662302
-0.6097919126328603
-0.1376454707152919
-0.2460749059722666
-0.2167015543657637
0.4727192409608925
-0.6416571270359848
0.07838739721036342
-0.02811748199725109
-0.5746933568662846
-0.0556972251220588
-0.3693127374538678
0.1112820788230529
-0.1953001266850605
-0.06215640586327793
-0.1252109348293518
-0.354447994415957
-0.08187730995184635
0.5162256228131858
0.08786582399923536
0.4685997148740515
-0.1180037340531182
-0.2097072445529841
-0.5056781058374686
-0.1369220062516706
0.02313271817245352
-0.05644562937467501
0.09812063935137035
-0.2999353322196886
0.2365339208901212
0.003318319570723442
-0.002493427657312733
-0.5043328193769423
-0.1796424130592598
-0.09810854455107947
0.5812732679612049
0.1402675713145293
0.3416683329169778
0.224904018018486
-0.5710210518568121
-0.1979555573396977
-0.223351831148045
-0.2216258611584744
-0.06308888382190468
-0.683249840976324
-0.1872042530257966
0.3033549586764177
-0.1928247006100363
-0.011390003605022
-0.1583778766480712
-0.01281319769014099
-0.1722692087256306
-0.4512913923667856
-0.07601302823488477
-0.2104868268319375
-0.07633783618352916
-0.1066247225271225
-0.1311331231060123
-0.07190999190195381
-0.4371220547605431
-0.4070041148808735
-0.02229333504107472
-0.079035194134292
0.3311636740952499
-0.2545629847657127
-0.1695391875891122
0.5231849455187576
-0.1919212319134881
0.02266915778719761
-0.4588986012935688
0.0525022239327814
-0.05844021796257055
-0.1467169848615441
-0.5969054925359397
0.1566756781944313
-0.5711330030011172
-0.5451097030180652
-0.09982439503353792
-0.5168880506487741
-0.03568596601461338
-0.1559176736242134
-0.4182858090460269
-0.01596785991093583
0.2891453334540858
0.490055864441369
-0.1693650882030585
-0.004397181110976337
-0.08757511307421416
0.5248484529729484
-0.03172743792991085
-0.4494494793917047
-0.03142631436731962
0.4623987625734571
-0.01847451233065026
-0.5546893483944516
-0.2427361611619974
0.1792327649086071
-0.3182862870399137
-0.1845375505516642
0.0460157345404506
0.03028845502144016
0.0575620070278433
-0.3073477501599411
-0.16092179725068
0.4128177466096072
)
;

boundaryField
{
    FrontBack
    {
        type            empty;
    }
    Top
    {
        type            zeroGradient;
    }
    In
    {
        type            zeroGradient;
    }
    Bottom
    {
        type            zeroGradient;
    }
    Out
    {
        type            fixedValue;
        value           uniform 0;
    }
    circle
    {
        type            zeroGradient;
    }
}


// ************************************************************************* //
