/*--------------------------------*- C++ -*----------------------------------*\
| =========                 |                                                 |
| \\      /  F ield         | OpenFOAM: The Open Source CFD Toolbox           |
|  \\    /   O peration     | Version:  2412                                  |
|   \\  /    A nd           | Website:  www.openfoam.com                      |
|    \\/     M anipulation  |                                                 |
\*---------------------------------------------------------------------------*/
FoamFile
{
    version     2.0;
    format      ascii;
    arch        "LSB;label=32;scalar=64";
    class       volScalarField;
    location    "39";
    object      yPlus;
}
// * * * * * * * * * * * * * * * * * * * * * * * * * * * * * * * * * * * * * //

dimensions      [0 0 0 0 0 0 0];

internalField   uniform 0;

boundaryField
{
    FrontBack
    {
        type            empty;
    }
    Top
    {
        type            calculated;
        value           nonuniform List<scalar> 
15
(
142.2736641084244
133.5690375746785
138.0683251536316
144.4020346404238
159.7702491658348
131.3685175477457
140.1215008042559
135.3553060320769
153.4327672193738
135.7408995877615
136.0892668674415
136.7701725619715
125.2449277175111
132.898797877417
123.9422457256757
)
;
    }
    In
    {
        type            calculated;
        value           uniform 0;
    }
    Bottom
    {
        type            calculated;
        value           nonuniform List<scalar> 
15
(
155.5653662967107
158.1142060284096
141.0920832989013
142.068588940212
141.1841521531734
148.4441067838727
142.7061136370824
143.1662754873759
143.4247384081499
134.057926993088
125.7338828236411
141.5537903477829
122.4124925063044
123.4920412679252
124.1408907466109
)
;
    }
    Out
    {
        type            calculated;
        value           uniform 0;
    }
    circle
    {
        type            calculated;
        value           nonuniform List<scalar> 
32
(
56.35581211181953
22.1205639113774
65.31687263305103
23.84857745725752
19.15753501550663
56.18295958826825
56.80764915761278
24.1555277811534
22.32607418486625
65.53633123763083
40.17996826514532
63.04627435188413
50.31232072550793
13.71859729358841
23.68109053399643
19.01946679911926
38.89002108075778
59.59816640776879
61.01359554836541
25.15218244606242
65.72296445012141
63.8168962305173
62.95552603541352
59.9177086857124
64.10277949420852
45.96745461240322
66.36413055188825
32.0917361886148
37.99636090774231
55.74570257726266
21.11874484194903
43.14633921031194
)
;
    }
}


// ************************************************************************* //
