/*--------------------------------*- C++ -*----------------------------------*\
| =========                 |                                                 |
| \\      /  F ield         | OpenFOAM: The Open Source CFD Toolbox           |
|  \\    /   O peration     | Version:  2412                                  |
|   \\  /    A nd           | Website:  www.openfoam.com                      |
|    \\/     M anipulation  |                                                 |
\*---------------------------------------------------------------------------*/
FoamFile
{
    version     2.0;
    format      ascii;
    arch        "LSB;label=32;scalar=64";
    class       surfaceScalarField;
    location    "28.7";
    object      phi;
}
// * * * * * * * * * * * * * * * * * * * * * * * * * * * * * * * * * * * * * //

dimensions      [0 3 -1 0 0 0 0];

oriented        oriented;

internalField   nonuniform List<scalar> 
1171
(
-0.945654
0.945654
0.781795
-1.0889
0.307109
-0.366229
-0.759071
1.1253
0.0543464
-0.0631634
-0.275073
0.338237
-0.781795
0.0860744
0.695721
0.939204
-0.203705
-0.735498
0.846581
-1.03733
0.190752
-0.355517
-0.0336067
0.389124
0.00160182
0.603386
-0.604988
-0.502032
0.973384
-0.471353
-0.418681
1.0159
-0.169319
0.279522
0.0801364
-0.359659
0.999812
0.0160878
0.319104
-0.0395812
1.03417
-0.034356
0.664084
-1.03031
-0.791574
0.615036
0.176538
0.381229
-0.88326
0.56226
-0.91625
0.35399
-1.07976
0.669749
0.410014
-0.642768
0.64437
0.0356318
-0.25561
0.219979
0.0144077
-0.633088
0.618681
0.467207
-0.500814
-0.843872
0.891622
-0.0477508
1.00737
0.0268011
0.923462
-1.07759
0.154131
1.04311
-0.0357456
-0.701485
-0.0900891
1.24698
-0.855942
-0.391034
0.199241
-0.0690627
-0.417541
0.486604
-0.274084
0.18212
0.091964
-0.603816
-0.485089
0.973667
-0.0502045
-0.0146234
0.867501
-0.852878
0.509718
0.737258
0.534323
0.0275756
0.439631
-0.787164
-0.10602
0.893184
0.597854
0.231278
-0.829133
0.0130437
0.613636
-0.626679
-0.50886
-0.570902
-0.390705
-0.686889
0.029673
0.242471
-0.272144
-0.944091
-0.0313092
0.9754
0.374298
0.014826
0.86743
0.0717735
-0.60514
-0.0376275
0.0386972
-0.825861
0.179135
0.904639
-1.08377
-0.406096
0.0227701
0.383326
-0.712994
-0.231097
-0.720998
0.900133
0.609055
0.36433
-0.577412
0.996561
-0.822262
-0.174299
0.0556856
-0.169202
0.113517
-0.45807
-0.042744
-0.320308
0.929363
-0.0207699
0.443514
-0.422744
-0.488841
1.0867
0.712181
-0.818201
0.386468
-0.0771922
-0.309276
0.763296
-0.763296
-0.960194
0.0382012
-0.313275
-0.695983
0.681359
-0.0304828
-0.141376
0.171858
0.889756
-0.0222553
1.04707
-0.815792
0.222251
-0.317909
0.0956574
1.00418
-0.136754
-0.680752
-0.0490684
0.729821
0.149993
-0.233504
0.0835108
0.811312
-1.01502
-0.445511
0.312076
0.133435
0.656272
-0.641864
0.882145
-0.39865
-0.483495
0.49144
-0.694602
0.0373984
0.657203
0.175051
0.672007
0.0452067
-0.717214
0.132086
-0.0938853
-0.515892
0.109797
0.0363405
-0.9065
0.87016
-0.552952
-0.763645
0.0621603
0.499541
-0.0599092
0.274134
-0.832569
0.558435
0.424427
0.575573
0.597836
-0.559139
-0.365699
-0.0363347
0.402033
0.542183
0.221113
-0.660006
0.673049
0.0819996
0.897386
0.00436124
-0.685113
-0.766748
0.803089
0.622939
0.116473
0.35831
-0.474783
-0.156113
0.508474
0.105162
0.771371
-0.690281
-0.0810905
0.655016
0.341545
-0.428397
0.716341
-0.599868
0.409879
0.152381
-0.0579784
-0.638672
-0.173447
0.81212
-0.117725
-0.645572
-0.612634
0.364735
0.247898
0.661438
-0.657076
0.307754
1.03322
0.0138488
-0.766748
-0.0373158
0.0930014
0.712181
0.78527
-0.78527
0.84434
-0.831072
-0.0132678
-0.454784
0.879211
-0.193515
-0.322377
0.762921
-0.668106
-0.0948145
-0.836362
0.19769
0.106304
-0.711444
0.818201
-0.974314
-0.168153
0.165443
0.00270953
0.118417
-0.989232
0.870815
0.547928
-0.0136047
-0.290446
0.59629
-0.305844
-0.654411
0.772828
-0.160825
0.763879
-0.763425
-0.000453391
1.17958
-0.650207
-0.529377
0.727292
-0.0700776
-0.0170619
0.0188538
-0.00179197
-0.801272
-0.906863
0.147792
-0.695983
0.575381
-0.55261
-0.05939
0.709011
-0.649621
0.780016
0.165637
0.491944
0.508056
-0.031804
-0.63376
0.665564
0.711237
0.0601342
-0.727292
0.803089
0.178748
-0.434359
-0.0201093
-0.00142309
0.0215324
0.67502
-0.440153
-0.234867
0.695721
-0.00799871
-0.142984
0.552306
0.122715
-0.00845747
0.00185653
0.00660093
0.00247471
-0.0195366
0.121206
-0.198399
-0.946095
0.0439884
-0.143006
-0.0469465
0.122522
0.766387
0.743004
-0.167431
0.363613
-0.423003
-0.162599
0.38485
0.640562
0.055159
0.228861
-1.05993
-0.974314
0.314389
0.681359
-0.157619
0.0162432
-0.810375
0.980667
-0.170292
0.485329
-0.102004
0.800082
0.305398
0.274981
0.0441227
-0.680745
0.680745
0.223833
0.669351
-0.00837345
0.451887
0.47823
0.0220567
-0.042166
0.554661
-0.00673277
-0.654411
0.572411
0.19051
0.0178932
0.000960574
-0.640562
0.166518
0.814149
0.0181725
-0.724377
0.706205
0.758817
-0.822909
0.0640927
-0.780016
-0.0319402
0.04362
-0.0116797
0.0837496
-0.127668
-0.107696
0.235364
-0.00690932
-0.00154815
0.766667
-0.748495
0.879323
0.245976
-0.47939
-0.480447
0.959838
-0.00121673
0.00121673
0.129109
0.3732
0.741234
-1.11443
-0.197864
-0.560881
0.758745
-0.0189214
0.19078
0.38572
-0.235727
1.08233
-0.709131
0.759071
0.932485
-0.191252
0.192205
0.772828
0.603509
0.25635
0.635272
-0.645572
0.319255
-0.0261719
-0.0214775
0.0476494
0.841537
0.0199343
-0.861472
-0.569153
0.533408
0.545216
-0.569153
-0.603509
0.533408
-0.0037339
1.02096
-0.141636
-0.542183
0.461929
0.0802545
0.505873
0.655117
-1.16099
0.464603
0.617728
0.67129
0.479549
-1.15084
0.359687
0.572798
0.461929
-0.519505
-0.543056
-0.691636
-0.448846
-0.0544144
-0.00326393
0.00326393
0.636528
0.579861
-1.02871
0.738818
-0.380508
-1.05954
0.409333
-0.68306
0.451963
0.0264602
-0.967424
0.940964
0.452558
0.0299899
0.811547
-1.20039
-0.970422
0.0263757
0.944046
0.309868
-0.0587555
-0.251112
0.76412
-0.814325
1.05354
-1.01148
-0.042066
-0.0175914
-0.672689
-0.104753
0.830029
-0.725276
-0.96918
0.951589
-0.562188
0.6304
-0.0682124
-0.888072
0.23329
0.654782
0.00321528
-0.00443201
0.426515
0.146847
-1.03138
0.884533
-0.741738
0.709934
1.01044
0.109243
-1.11969
0.0400226
0.0107633
0.39127
-0.358325
0.0404159
0.957937
-0.931477
-0.642096
-0.815804
0.143114
-0.125286
-1.04203
0.0305542
0.562641
-0.199028
0.0785223
0.231345
-0.487079
0.72037
0.483495
-0.937434
-0.859937
0.161021
-0.136096
0.631152
-0.495057
-0.101066
-0.778192
0.579147
0.179669
-0.144073
0.95562
0.977964
1.00458
-0.974025
0.0451867
-0.0451867
-0.0895583
-0.306865
0.248109
0.340744
-0.0263555
0.266982
0.854554
-0.00118451
-0.00572481
0.658323
0.341677
0.797342
-0.603816
-0.760633
-0.475122
-0.485657
0.485657
-0.206274
-0.107001
0.679147
-0.987445
0.308298
-0.484364
-0.560445
0.35933
-1.04622
-1.00534
0.963272
-0.569586
0.7127
0.686123
0.188964
-0.875087
-0.543335
-0.167448
0.837796
-0.670348
0.150784
-0.0040318
0.00350441
0.000527389
-0.0138519
-0.293013
1.03848
0.684237
-0.382104
-0.302133
0.433125
0.741472
-0.517639
0.0102834
-0.284367
0.174169
0.741159
-0.915328
-0.360095
-0.0686884
0.135228
-0.96641
0.104938
-0.798481
0.0499646
0.776601
-0.826566
-0.887865
0.0893845
0.700793
-0.769482
0.234935
-0.362603
-0.404255
-0.139079
0.370351
0.747388
-0.0310471
0.0042409
-0.0042409
-0.0014074
-0.00404028
-0.0221316
-0.0174973
0.0163128
-0.603284
0.328875
0.785143
-0.848374
0.0632318
-0.739999
0.789964
0.7696
-0.0688068
-0.735383
-0.152482
-1.176
0.0205793
0.0246074
-0.429115
-0.840136
-0.852988
0.461954
-0.219862
0.224956
-0.00509442
-0.552734
0.123619
0.519985
0.712669
-0.0342702
-0.0126764
1.10549
0.493935
0.222949
-0.716884
-0.435602
-0.117132
-0.00772384
0.00369204
0.709742
-0.883189
0.00663234
-0.00663234
-0.708769
0.707487
0.00128126
-0.35708
-0.088868
-0.707908
0.0425791
0.622985
-0.0508617
-0.875356
-0.0427764
0.152015
-0.109238
0.838304
-0.775073
0.341514
0.264483
-0.605997
-0.130394
-0.724268
-0.102298
-0.214834
-0.000197281
0.471109
-0.513853
0.175702
0.728821
-0.904523
0.49144
-0.124626
-0.0952361
0.0998401
-0.100037
0.597501
-0.0934245
-0.504077
-0.282578
0.303066
-0.0204876
0.597341
0.141477
0.0453323
-0.309576
0.167256
0.14232
-0.104645
0.0673296
-0.250707
0.00480535
0.12309
-0.127895
0.864009
-0.358355
0.00127494
0.554281
0.245134
-0.627238
0.40908
-0.40908
-0.198608
-0.390861
-0.210563
-0.390861
-0.657733
-0.849734
0.181627
-0.110245
0.730832
0.044891
0.169008
0.578379
0.108366
0.116102
0.0105398
-0.126642
0.0417693
0.775614
-1.05491
0.574461
0.0237122
0.0675758
-0.0912881
-0.739155
-0.17621
-0.575457
0.798406
-0.546212
0.0689585
-0.168996
-0.335632
-0.0816825
0.0816825
0.0412831
0.00233687
0.136681
0.292286
-0.766349
0.190893
0.00223472
0.471116
0.528884
0.755266
0.0265413
0.0111767
-0.037718
-0.292628
-0.582728
-0.5341
0.11192
-0.117119
0.0051995
-0.115494
-0.415802
-0.0152665
0.638252
-0.580411
-0.158743
-0.100244
0.03995
0.0868438
-0.299383
-0.195734
-0.177728
-0.0206706
-0.485397
0.430237
0.0551595
-0.0449558
0.293569
-0.864471
-0.540676
0.680021
-0.851344
0.72095
0.462651
-0.0337619
0.0613763
-0.0276144
0.0148914
-0.634904
-0.00136192
0.636266
-0.894296
0.637164
-0.726723
-0.091636
0.00682052
-0.00682052
-0.299293
0.443403
-0.0521326
0.0130927
0.0134486
0.591892
0.539974
-0.621064
0.0116696
0.0067434
-0.0025025
0.00354074
-0.00354074
-0.517166
0.658642
0.013173
-0.013173
-0.777717
-0.00846916
0.0116844
-0.519981
0.710874
0.591228
-0.589947
0.0680019
-0.0680019
-0.00718875
-0.0349773
0.0130518
-1.0381
0.508722
-0.52226
-0.00443201
0.597757
0.0119221
-0.609679
-0.704541
0.124129
-0.318382
-0.0135036
0.331886
-0.0206125
-0.0136577
-0.60436
-0.0305443
0.0246074
0.00577883
0.000853512
-0.00293304
0.00293304
-0.430947
0.303051
-0.45256
0.134213
0.663129
-0.138505
-0.000736497
0.000736497
0.508514
-0.068038
0.00803726
0.0177869
-0.000891273
0.562777
-0.630815
-0.694912
0.696187
-0.0788574
0.32258
0.77728
-0.0014074
-0.101833
0.102794
-0.644123
0.555522
-0.294282
-0.106784
-0.0252124
-0.0255324
-0.00632068
0.471497
-0.0872039
-0.416873
0.698695
-0.000276808
0.00741168
-0.00741168
-0.176758
-0.138661
-0.573178
0.618069
-0.141458
0.509086
-0.224152
0.888236
0.864999
0.00577883
-0.799368
0.722015
0.0223822
-0.0659946
0.0436124
0.651232
0.094796
-0.0125176
0.0691254
-0.0566078
0.00958455
-0.00958455
-0.759053
0.0228153
-0.0427958
0.0605827
-0.0874001
0.0874001
0.0067434
-0.00214389
0.740725
0.0734248
-0.319643
-0.0961584
-0.520934
-0.0778616
-0.0678713
0.0678713
-0.0449067
0.0800206
-0.0800206
0.0275758
-0.0275758
-0.354522
-0.0738747
0.242357
0.0697185
0.0528483
-0.730068
-0.0593308
0.161936
0.0168123
-0.250462
0.0798886
-0.0798886
-0.466472
-0.0473803
0.232713
-0.0127343
0.00284578
-0.645352
0.649086
0.0320298
-0.0769366
0.0215031
-0.0564804
-0.0120187
-0.15498
0.166999
-0.151008
-0.211594
-0.0824264
0.0824264
0.0557968
-0.0557968
-0.0301316
-0.0944959
0.124627
0.000368797
-0.186921
-0.012197
0.00969449
-0.292095
0.595146
-0.0258857
0.418779
0.00581569
0.000785238
-0.0522563
0.0522563
-0.728084
0.320631
-0.128426
-0.210313
-0.0231905
-0.01823
0.0210758
0.201705
0.0336581
-0.00088654
-4.73339e-06
0.0824013
0.0295187
0.0547056
0.10723
-0.0104296
-0.00224676
0.000779346
0.00588322
0.00568509
0.00859098
-0.0142761
-0.000668281
0.00553889
0.0286503
-0.0286503
0.0508954
-0.0411877
0.0411877
-0.191069
0.00666846
0.0265872
-0.076025
0.0179913
0.0759059
-0.0759059
0.256865
-0.24157
0.0905621
-0.0678062
-0.173764
-0.0169791
0.0169791
0.406134
0.251069
-0.517121
-0.0807536
-0.0363658
0.540347
0.0218719
-0.0681753
-0.459365
0.0867091
-0.154706
0.171639
-0.0169324
-0.0463872
0.0463872
0.863989
-0.592857
-0.0116903
0.011022
-0.0057176
-0.283211
-0.000131988
0.00497375
-0.0430876
-0.624423
0.568315
-0.667394
0.0145551
0.208459
0.015615
0.0246805
-0.160424
-0.336592
0.260567
-0.0572781
0.0271465
0.170504
0.132561
0.189121
0.267103
-0.251488
0.0065386
-0.112706
-0.223817
0.0689493
-0.0142437
0.163357
-0.138677
-0.0684074
0.150809
-0.402911
0.124414
-0.106423
0.0590768
-0.47595
0.176613
0.175279
-0.243686
0.00465235
-0.1756
0.175468
0.00398272
0.146826
-0.0280147
0.0513944
0.45712
0.0116712
0.0279895
-0.00679901
0.0350503
-0.240749
-0.203156
0.589683
0.171031
0.0616823
0.080368
-0.0631728
0.0658411
-0.0222287
-0.0301521
0.167977
-0.153422
0.0216689
-0.00199581
-0.103826
-0.0287741
0.0194221
0.252591
0.00328548
0.00936072
-0.313598
-0.00698922
0.215695
0.142419
0.178212
0.0569344
0.0987417
0.0504754
0.541416
-0.0134967
0.101366
0.0443958
0.0643805
-0.108776
-0.266051
-0.199353
0.0255891
-0.223359
0.288009
)
;

boundaryField
{
    FrontBack
    {
        type            empty;
    }
    Top
    {
        type            calculated;
        value           uniform 0;
    }
    In
    {
        type            calculated;
        value           uniform -1;
    }
    Bottom
    {
        type            calculated;
        value           uniform 0;
    }
    Out
    {
        type            calculated;
        value           nonuniform List<scalar> 10(1.13589 1.02538 1.23469 0.977415 1.13467 1.02164 1.21639 1.04481 0.607689 0.601424);
    }
    circle
    {
        type            calculated;
        value           uniform 0;
    }
}


// ************************************************************************* //
