/*--------------------------------*- C++ -*----------------------------------*\
| =========                 |                                                 |
| \\      /  F ield         | OpenFOAM: The Open Source CFD Toolbox           |
|  \\    /   O peration     | Version:  2412                                  |
|   \\  /    A nd           | Website:  www.openfoam.com                      |
|    \\/     M anipulation  |                                                 |
\*---------------------------------------------------------------------------*/
FoamFile
{
    version     2.0;
    format      ascii;
    arch        "LSB;label=32;scalar=64";
    class       surfaceScalarField;
    location    "881";
    object      phi;
}
// * * * * * * * * * * * * * * * * * * * * * * * * * * * * * * * * * * * * * //

dimensions      [0 3 -1 0 0 0 0];

oriented        oriented;

internalField   nonuniform List<scalar> 
1171
(
-0.9279023236014713
0.9279023235539373
0.7873947831103133
-1.099196533056009
0.3118017502543922
-0.1900479704870253
-0.7665149462443793
0.9565629166005245
0.07209767459762775
-0.1175417889835897
-0.2123707919441659
0.3299125798940719
-0.7873947720019011
0.06937357327330654
0.7180211987487197
0.8111750631438925
-0.1779324046123508
-0.6332426586853172
0.8739903660007029
-1.044098488837553
0.1701081228893714
-0.2853207448442459
-0.09812488330385012
0.3834456286198846
-0.0365299823774075
0.5488989730309489
-0.512368990761162
-0.5077609869362021
0.8274817746079532
-0.3197207874740837
-0.4028625270946241
1.045691406072762
-0.1717010390482874
0.3923490436540538
0.05058439055216059
-0.4429334360592903
1.04596405993962
-0.0002726528360131866
0.4445681698160521
-0.05221912785256436
1.056454893089948
-0.01049083457473145
0.5805438263189309
-0.7705917913564366
-0.7240509333849808
0.5565901653819717
0.1674607678859658
0.2138053566473436
-0.7215663512297201
0.5498333328784731
-0.9225153331608863
0.3726819992062468
-1.094222862346695
0.6866284675236899
0.4075943949120261
-0.5955794770308984
0.5590495029631949
0.01713970399967867
-0.2556779329916186
0.2385382279782431
-0.02248304924232244
-0.52418504363207
0.5466680918989556
0.4002809665571627
-0.4984058432273391
-0.9189578966282568
0.9416996092847305
-0.02274171259798732
1.067792020352825
-0.01133712809568497
0.9349017984343158
-1.116710212578426
0.1818084140255498
1.06726194444856
0.0005300735163789042
-0.6643668275099709
-0.05968410251195803
1.26216620311238
-0.8643607789263097
-0.3978054242017549
0.1483040451258121
-0.1100165786252447
-0.3254666960020874
0.4354832750543431
-0.2854908669670395
0.1920044037698366
0.09348646373185668
-0.5836670890378849
-0.5155294489512491
1.014101092739737
-0.07919929481119589
0.009870553701914199
0.8255019464559757
-0.8353725000741259
0.5717060771389081
0.6904601284802768
0.4388823991594822
-0.03103639787773782
0.4313173640125891
-0.8080765532891285
-0.1025474631783266
0.9106240163413358
0.5021292180504184
0.2540720097398402
-0.7562012277755527
0.006388142093966175
0.5299600144145874
-0.5363481575634169
-0.4900162265722433
-0.6042066345845155
-0.4227624233716427
-0.6939477889612315
-0.02731263612267144
0.2707768209630576
-0.243464183632413
-0.9248006328317369
-0.005122284264932629
0.9299229171915508
0.3084557391444991
0.07498989511286519
0.761560992133946
0.04961406736270828
-0.5329513648085764
-0.06262811061673917
0.04600343696349851
-0.8540799890847536
0.0764727214602634
0.8629542143230905
-0.9394269357346472
-0.3468683742650321
-0.0407562799664811
0.3876246546581517
-0.68209630632399
-0.2427043206308753
-0.6343848741048824
0.7108575947192141
0.6143207049728004
0.2131610631385699
-0.5434053804971094
0.9456907358529149
-0.7789353901454066
-0.166755345620039
0.01061528563803819
-0.006308336183907825
-0.004306949285684198
-0.4034816946553513
-0.09492414889769586
-0.2412695853107007
0.8555902864132857
0.04851894438240788
0.3339703584476778
-0.3824893021979445
-0.461601308875696
0.9637305221185385
0.6804519285988651
-0.7829993914363325
0.3191591656818849
-0.01534509506561762
-0.303814069648746
0.9307187395471493
-0.9307187395210068
-0.7813221061061033
0.1112187645578473
-0.3235895521144002
-0.7499295149788596
0.7598000723581309
-0.09085910504254427
-0.1432467722431731
0.2341058783046988
0.8648792373392445
-0.03937728549965062
1.054530706775391
-0.8004587039477846
0.186766564519288
-0.316392944946553
0.1296263800387522
0.8584000335621704
-0.09683904285166517
-0.6113507574149496
-0.03915744875611623
0.6505082062292714
0.1234195663620841
-0.23038926470471
0.1069696970244014
0.8055536560618607
-0.9834860637720083
-0.43421184584792
0.3290841932156548
0.1051276517476781
0.5334653173916284
-0.5559483677886339
1.021932424876304
-0.4562183214283906
-0.5657141034048012
0.5991700024479133
-0.7192990717750178
0.06651567884106988
0.6527833933041348
0.1021987999434229
0.5695647655316621
0.05521456352782883
-0.6247793292532964
0.1948441909577404
-0.08362543090610196
-0.4920897080916951
0.1452213340481838
0.0502534378140081
-0.8864215491896874
0.8361681112678341
-0.4736006455173272
-0.7131817900716965
0.04881496371394864
0.4370714403699442
-0.005754072505535087
0.300068125679013
-0.855292425751554
0.5552242999129263
0.4157591603403376
0.5842408395276126
0.560551064791012
-0.5145476306932661
-0.367678116861643
0.03971307191870596
0.3279650488456885
0.681261405875584
0.2494573339666218
-0.5672238460157086
0.5736119891389008
0.1116047477733651
0.8749272209206573
0.01022262408059445
-0.6215733783836701
-0.7490576090532792
0.799311046371019
0.5304073240940149
0.07026461315415813
0.30093990922336
-0.3712045227058022
-0.1674515190839108
0.4452190030281304
0.08474102429129951
0.8742050780079118
-0.8049997399433096
-0.06920533813064608
0.6353649097539944
0.3103258283071704
-0.4307943307325197
0.5737597367407694
-0.5034951229205092
0.4170721443374533
0.1327611882000538
-0.04673139249583993
-0.5924331625800451
-0.1390527860568166
0.7314859486269445
-0.1497403191675694
-0.7809784173863386
-0.6110242359590937
0.3601954586954659
0.2508287786546641
0.6219326365326809
-0.6117100121994811
0.2390534716366859
1.011572133827783
0.04295857200617606
-0.7490576117724932
0.2297288585633861
-0.219113572664365
0.6804519311352226
0.8017831867456507
-0.8017831866330721
0.8376065868156948
-0.8330730014086408
-0.004533585495058195
-0.4453424360081967
0.8611015985965002
-0.147303041224311
-0.3447866643055642
0.7347630234956002
-0.6685671817165547
-0.06619584170421065
-0.7363244378423364
0.1438912752605818
0.1391241193343516
-0.6720754843698304
0.7829994016178445
-0.9504509206441808
-0.36829083267838
0.287926959521546
0.08036387619890631
0.1457251961473434
-1.01011465922751
0.8643894630515302
0.4809292485315443
-0.04204684926992867
-0.3080728858896472
0.5862545539033889
-0.2781816682033814
-0.7386092357391096
0.8843344337764633
-0.1570027504812679
0.7313700261044355
-0.8397990567531103
0.1084290307557854
0.9766538841650587
-0.5390989782080678
-0.4375549058370963
0.7550517916012338
-0.06498320962410614
-0.03394366568680606
0.1845952854617619
-0.1506516193518028
-0.7758099034805375
-0.8392029019614969
0.07268796164992751
-0.7499295133406216
0.513749887654078
-0.5545061632349008
0.1005171110915939
0.7166220023783013
-0.8171391136417393
0.7535912077404145
0.1743110980269772
0.5029300604751891
0.4970699395552097
-0.05360713869997652
-0.6120179579720215
0.6656250957085066
0.8813485338855649
-0.00714345911096784
-0.7550517916238438
0.7993110468794346
0.1916510811841307
-0.4473290157030559
0.01280755803157628
0.003802979712727769
-0.01661054262040145
0.588834149987352
-0.4373586417569743
-0.1514755089092574
0.7180211917134008
0.01031992914937636
-0.1078328771773045
0.438452320027291
0.1503818292716071
-0.0161635038971105
-0.00718935408387657
0.02335285863762047
-0.03115042858648075
-0.002793233857389052
0.2459013737954548
-0.2612464757007943
-0.9587859362643635
0.001457478351134918
-0.1594748893721931
-0.1223894508308871
0.09455042647669261
0.7224609300971914
0.7289484212628486
-0.1447075803275945
0.6742744848663736
-0.5737573724111188
-0.2118846066532426
0.3986511723782363
0.6956506631514251
0.02237052860033536
0.2418385204962528
-1.074911522617774
-0.9504509176939271
0.3027016670463233
0.7598000757990818
-0.2093292934115452
0.06608252061616265
-0.723918407750212
0.9108187560948966
-0.1869003483165894
0.4156255933555274
-0.02800093145582085
0.7711849000129493
0.280700929889625
0.3767210268639306
0.06784715045193158
-0.6587123650829044
0.6587123651032504
0.2147401506744633
0.6958838660393115
-0.05649829492157948
0.390468646005672
0.378984977872198
-0.01383928202506647
0.0266468569925127
0.4482805526143741
0.03264869984918208
-0.738609234953528
0.533971389455964
0.2007916335762287
0.299993725766561
-0.1153984370656995
-0.6956506620246091
0.1797090236287723
0.7311097317330508
-0.01021932478014363
-0.8136136298909817
0.8238329546786758
0.6964161752633715
-0.7919609302076622
0.09554475484128036
-0.7535912015600003
-0.1506757600670954
0.2120809042768788
-0.06140514327090631
0.0774846646646413
-0.1783889180025874
-0.1127589194924748
0.29114783590159
-0.007308219212544012
-0.008855276357726293
0.7063448076082186
-0.7165641243436974
0.8871368817280365
0.06942603937517819
-0.3121102052763639
-0.5228570022832756
0.8349672076493427
0.1035378847703232
-0.1035378883269438
0.3276400296483473
0.4759002809238743
0.6114491596435049
-1.087349440578781
-0.1940859712010228
-0.5855386506759541
0.7796246218504929
0.01304436265212227
0.2210615103371184
0.3761882038551687
-0.2527686471113998
1.016095536117034
-0.5401952585183433
0.6686899364849649
0.9924993257612905
-0.3810501695145991
0.2288851662984763
0.8843344355077198
0.7126333964039387
0.2139086571242254
0.7277909499935579
-0.7809784168780917
0.3412876231898826
-0.2844279946524629
0.2605216524231981
0.02390634533862025
0.8501489641735477
-0.00358726190301298
-0.8465617025668468
-0.7021425599900257
0.7026726320380894
0.5546575629207164
-0.7021425605087331
-0.7126333963831694
0.7026726315752773
-0.03375853728808682
0.9085744019672577
-0.02143751704667443
-0.6812614165565458
0.6122397587308777
0.0690216578431449
0.5385522418594771
0.5383106275762578
-1.076862869469993
0.4870341676379918
0.5290613674482468
0.5482339867905127
0.4573955529696596
-1.005629539819557
0.492512916646171
0.4999864076513776
0.6122397660653892
-0.5256744817553445
-0.4666494672952374
-0.5561922464281879
-0.5135946522809501
-0.1231770505768356
-0.01281898029548543
0.01281898131339948
0.5100044190691756
0.524583952708122
-1.038178605103997
0.5718929119876502
-0.270953001874421
-0.8830402989064939
0.3439413213232601
-0.6328208378958919
0.3901165192608352
0.0002401678044789094
-0.8258140542651432
0.8255738865871611
0.4208755469643851
-0.0250701533784329
0.8752191176590441
-0.9464950835185982
-0.8335211916627503
0.05601523645152861
0.7775059553757862
0.5568315089882145
-0.438418635693031
-0.1184128732530375
0.6502356467884388
-0.7294349411140489
0.8872450461987593
-0.8267746163550485
-0.06047042953969869
-0.01480725452876219
-0.790192488611799
-0.1112662066612037
0.7133640496247792
-0.602097842986944
-0.9413706208161557
0.9265633663672094
-0.7305043338067674
0.688368650341054
0.04213568353795329
-0.8026070804131008
0.02885290672886962
0.7737541738008518
0.06194599437945325
0.04159189305768589
0.4328293195850846
0.05925004546437296
-0.8503729412376314
0.7911228956720998
-0.6461780611284749
0.5925709235292276
0.8885880627836585
0.07369612883665382
-0.9622841916006035
0.05506687487722366
-0.05053404147534066
0.378499091424082
-0.3819375805406092
0.06554463448654323
0.8405274423218707
-0.8402872753913145
-0.733181034732011
-0.8146540935793969
0.0244616051373487
-0.1667989504526958
-0.8482299110076487
0.0214552904061105
0.6220753039608816
0.05219918226519502
0.02153469275191588
0.5352968155894005
-0.8157194376180652
0.8445723482369375
0.5657141035416408
-0.8508842087008071
-0.8676744894510461
0.04089991711240146
-0.0278755775174182
0.8340046230700305
-0.8061290454803309
-0.02265602740096836
-0.7610566108339283
0.5442806376656252
0.1521355444492481
-0.01828518731570987
0.8935043049231735
0.9825786049943644
0.8617100754915544
-0.8402547861159465
0.1478777377836295
-0.1478777393175804
-0.1174960428483944
-0.4646112203008025
0.02619258323411344
0.2708845613478815
0.03181710613370546
0.3870409557745613
0.870848279033415
0.008882232213404529
-0.01619044824936813
0.658588150869843
0.3414118491479853
0.7836310018920328
-0.5836670911119554
-0.7780881741579964
-0.8097163044806152
-0.6799309163466496
0.6799309163652392
-0.1682603984654681
-0.1553291518654424
0.6022077674936631
-0.8113330856290908
0.2091253181780308
-0.4940938872938286
-0.5688455950862706
0.2779747998598163
-0.9719225887804411
-0.8987257994290394
0.8382553643686331
-0.8166948256209543
0.8411564319640514
0.6485162863921252
0.1343025254271603
-0.782818811849843
-0.7675806220513285
-0.1464775970598457
0.7252570725093244
-0.578779475527624
0.02787752284255981
-0.01165511017531544
0.01545442912293467
-0.003799317805492601
-0.3523379184957573
-0.1122732954348225
0.8801825702349271
0.7431266849062722
-0.2411832128218072
-0.5019434729331969
0.624713820479462
0.6857979669409724
-0.471057816859197
5.757638023441182e-05
-0.2855484420203195
0.01119200057917544
0.750282363512673
-0.7614743637945067
-0.3234062997626123
-0.07256607398356221
0.07639124674183428
-0.9678253945936749
0.1212636930164478
-0.6770305557092416
0.05428834045194526
0.6396779520680158
-0.6939662925666172
-0.7561429085831017
0.0791123528914562
0.5891724778337719
-0.6617385517319495
0.1569915477709427
-0.3353804641873879
-0.7719625963604014
0.004381974209084353
0.3710853736356083
0.5996429547873549
-0.02588321459170762
0.01943532058355931
-0.01943532064444389
-0.02000831905540171
-0.05038698302229343
-0.2340410113799462
0.02562591780607115
-0.01674370712659846
-0.7197634157155104
0.2793405861458159
0.6791233102511932
-0.6892920115217541
0.01016870152669346
-0.5946861596747577
0.6489744960510831
0.6545926159151003
-0.06542013512721731
-0.6306340714058319
-0.1255088410257942
-1.050286132127798
0.01115453778575952
0.1367232032957755
-0.7085714164986917
-0.7419002848637607
-0.763936978072784
0.3661315558035602
-0.405129911562136
0.4624263697333733
-0.05729645751958315
-0.666177884444308
-0.04239353196725024
0.5002983633867023
0.7306858340181194
-0.2358788842230957
0.113489433843864
0.9634434221192801
0.4466751069350788
0.1321322944013967
-0.5788074014359399
-0.6766157257866748
0.01043784303099941
-0.04449960681468926
0.03284449346879401
0.6369958946814588
-0.7760486803279426
-0.002275105971019192
0.002275105960196661
-0.6005163021439216
0.6497157724157727
-0.04919947046710479
-0.6550810350236488
-0.1137013249241504
-0.6716843236461857
0.05916643295474449
0.6064586598196459
-0.1376313944712071
-0.8181619193834615
-0.5721680258539004
0.5715585976202354
0.0006094271489521031
0.6287693994286561
-0.6186007036978293
0.3224950010997049
0.2136015799827187
-0.5360965810691001
-0.1049043874928508
-0.601951880287261
-0.0920144136495426
-0.1538411905852785
-0.5130015928081566
0.4042812628848411
-0.4992054133866134
0.126332895902351
0.6787183078618856
-0.8050512036528437
0.5991700024436156
-0.3715803237949954
-0.03354959015784947
0.06805076078994099
-0.5810523586208536
0.5513297568349711
-0.0404830939188023
-0.5108466630261266
-0.3131503695842724
0.3057857851965262
0.007364585177316189
0.4518146780664414
0.1200782349593223
0.05264073758293986
-0.3165646286000505
0.1575893918102148
0.1589752369692431
0.2432590885887733
-0.01353023010343188
-0.2947719459717985
-0.3113098580188388
0.3517284868993354
-0.04041862771710178
0.7899536292014452
-0.6273826316360527
-0.02769840396295847
0.4993654008726853
0.2852893644641298
-0.526472572352488
0.5774576696514543
-0.5774576696506611
-0.289769466247831
-0.5864894803969543
-0.2955579028772526
-0.586489480444179
-0.5961526300909156
-0.8384817651864047
0.1699145814797325
-0.601190034878988
0.8211634166327501
-0.003176407290182125
0.1178416677078097
0.4818012887789804
0.09678484038152935
0.1859787671979019
-0.03636772227510311
-0.1496110430066154
-0.02963144785025434
0.5901869948469481
-0.9426583597408508
0.4198013545706504
-0.0078584922783055
0.00200660040204482
0.005851893317469071
-0.6441996093310023
-0.1320857070702599
-0.467461810134742
0.5995941066014826
-0.5034782252408803
-0.3206239632740355
-0.2604283761186251
-0.2719969677525905
-0.1114342544218763
0.1114342545095608
0.1534881398196987
0.05859276937312419
0.1971333088283821
0.4488961276390619
-0.5696563507633955
0.1021945370561827
0.2526631675804445
0.4664604341247607
0.5335395667797922
0.6452116550633383
0.08493801807602015
-0.0004041097790380881
-0.08453390334108148
-0.2771392581493776
-0.5410226613915234
-0.5476690125895487
0.1148936460457478
-0.1267140917174778
0.01182044619167266
-0.1055343412350735
-0.3852697562437822
-0.05052549211258812
0.6569841722916164
-0.4994242960767884
-0.1447753131797411
-0.326932299391453
0.2861544420977247
0.1293881002146243
-0.6161509036436027
-0.2046281255421423
-0.2631079175429618
0.001861458611129541
-0.4211416458945687
0.3232188134730806
0.09792283295374238
-0.09279695717041528
0.2917385414478492
-0.8959451769806061
-0.457318555576932
0.6273527239740705
-0.7732687406574219
0.6683643532093998
0.3399346060254914
-0.1246556487921351
0.2238977387505369
-0.09924209096152323
0.03037379158494698
-0.5862141057683832
0.02870002395993878
0.5575140814688302
-0.9006004227428436
0.547913999616741
-0.6654100423671065
-0.1044029985058943
0.1096138001644089
-0.1096138037226509
-0.3165070514015068
0.3584651573557716
0.02003392744228636
0.0242479561165508
0.06069005563846281
0.5045241108478387
0.667548091577546
-0.7367534319381622
0.02805092438790988
0.01977368473422662
-0.0003383688103256754
-0.006660826686131117
0.006660827311824075
-0.4105794781792625
0.5306577139778339
0.01580996837112212
-0.0158099681942409
-0.7926687091450916
-0.06065921108128873
0.1226052010224375
-0.4537669992876059
0.5559615368351749
0.4510350758028365
-0.5002345414814575
0.1502907139665098
-0.1502907148824851
0.03882743960715498
-0.01218058258101497
-0.04204639887226252
-0.9754351453222362
0.5378802411172855
-0.4678759420224014
0.04159189090876366
0.5152243438889808
0.03050239820371724
-0.5457267423974036
-0.6165049639374283
0.1170806701130972
-0.3290451860917897
0.0135935246098353
0.3154516608228648
-0.1553495980798266
-0.08052929260851442
-0.5410317802031269
-0.0451823172662312
0.1367232042083255
-0.04053556852560462
0.03826045708602744
0.08092723011030625
-0.08092722562342797
-0.5257868570929383
0.4853682190756408
-0.4149346781087394
0.1612977063541688
0.6223332956015849
-0.09700611144366354
-0.0039808829075855
0.00398088279263775
0.5329761091876402
-0.08085408606498079
0.006075913493243048
0.02710940397689751
0.0349310778604879
0.6877510147748782
-0.7686051011105309
-0.6577265193226509
0.6300281197544845
-0.1094107528083851
0.3140433658362008
0.7455270051114085
-0.02000831707320594
-0.2652759876993253
0.1498775565561428
-0.7445919582088477
0.4837528644990418
-0.42722734318252
-0.1012806087432135
0.003248862675145464
-0.01448509832826951
0.02522182773955776
0.4116336807955454
-0.12155302870683
-0.3892936338119419
0.62898707008285
0.01947979508777105
0.009066803592660246
-0.009066803201867667
-0.3515463808139212
-0.07689072053667471
-0.5602463005093886
0.557069892932832
-0.2374145602188726
0.4647015357487635
-0.1507476367152031
0.7312914661527173
0.6692993436316289
-0.04053556859739999
-0.6175901443773483
0.5614664667141526
0.2823776684437225
-0.2771877271664961
-0.005189939306894771
0.5372311671860026
0.09344143484741674
-0.03887164498357216
0.1960631936104268
-0.1571915479042069
0.119798878433662
-0.119798875069509
-0.8586150598365145
0.002412968843650729
-0.1135078760549859
0.1406172784404664
-0.1314708626028178
0.1314708629073406
0.01977369166684392
-0.0239892035434259
0.670179152722702
0.06093057989886839
-0.3225867344946243
-0.06268302087337443
-0.4712838475449601
-0.04455463336155336
-0.1512343967521494
0.1512343975365958
-0.04570645258538316
0.1437301797694781
-0.1437301802540805
0.1362084909273338
-0.1362084888183066
-0.3162267012135248
-0.114567629396601
0.2259259194184297
0.1031582744358505
0.03478209805263464
-0.8212323843470575
-0.1982906101551129
0.1698599381928701
0.02179113905530294
-0.2641500811323879
0.1262621657965892
-0.1262621662169636
-0.4143518043372427
-0.08485360697755301
0.2356482793998254
0.002889946826470477
0.0403916623702307
-0.5446578736477209
0.5784164109281085
-0.03493067842575341
-0.01077577082948133
-0.02459474882508093
0.01241416001017595
0.006560517461007094
-0.1848287917963264
0.1782682745441542
-0.1082050980300637
-0.2271753626685329
-0.1443286242071679
0.1443286247397368
0.07237545109714814
-0.07237545096705865
-0.01891709587914609
-0.108540890953828
0.127457986231503
0.2339353292143173
-0.1835239875595036
-0.02425161151742371
0.02391323218364449
-0.1288485477908593
0.6142167646433834
-0.0390588154461947
0.427112999508909
-0.04224324981939402
0.0655961033920377
-0.1529902652050115
0.1529902664853106
-0.6367100060888354
0.3080318758392703
-0.07914670929479833
-0.2340371944702377
0.003647927598509925
-0.121197229520432
0.1615888931417228
0.1951330423476152
0.09601479304791496
0.09613113081247023
-0.06120005352018747
0.07323144425190493
0.04166219982907183
0.06420899793935819
0.1056509455773869
-0.1002835539003823
0.2137729998794658
0.0113419192118295
-0.1170272475823728
-0.100607248010491
0.09601508098936844
0.004592166245318084
0.01070688265011401
-0.02276346404284616
0.03731220640648031
-0.0373122064073673
0.074865966081755
-0.05540345967979412
0.05540345998145838
-0.2243481871412761
-0.05143114123126673
0.01178735546648683
-0.1031192677640047
0.01640961539761818
0.1088860989966223
-0.1088860993263072
0.2930558781571985
-0.2707536925593498
0.1625485911290335
-0.05077138501015485
-0.219982306256011
-0.01678561051795386
0.01678561032826851
0.3676217343487549
0.2851616551560743
-0.5281113086033261
-0.09392345449790718
-0.03279063842298859
0.5289194360858798
0.2093405652045763
-0.1692611938478432
-0.3803637646043456
0.07657145841888566
-0.1471267244465984
0.1867254506682941
-0.03959872611170968
-0.06722390426496321
0.06722390415153542
0.8220984635389736
-0.5603187601890813
-0.004509461067288141
0.01521634587287963
-0.02003659717954068
-0.2874148585320317
-0.0174680157615964
-0.01285777203047616
-0.1322080873658331
-0.5723384238079331
0.5561374568162553
-0.568775868676528
-0.006905764896961738
0.09935957034270525
-0.00175587424517188
0.01678177994549029
-0.167163320558512
-0.3360778239219101
0.2329585561404335
-0.0539803392765809
0.03506324225163578
0.1322278658106585
0.1735579198265065
0.3424863230003358
0.2758236475777462
-0.2775795221651629
-0.062346797335814
-0.1551869888696036
-0.2204436728458336
0.07450692809526796
-0.01029792932670536
0.2134587052971188
-0.1966769258452739
-0.08625010104157213
0.1594815472153718
-0.3551742865081519
0.2079629348238899
-0.191553319691662
0.08962817137813087
-0.4789218002503121
0.1738676744089148
0.1708060852362772
-0.257056188364103
0.07336766420871696
-0.1949322170555457
0.177464201798486
0.01737606216924907
0.1421054853271977
-0.03959347711445979
0.06567827069029676
0.4672978390945398
0.02052659137614701
-0.08531769023711977
0.05463654123490006
0.1261321757207247
-0.2600424012126527
-0.2309501652766827
0.5597299400379625
0.156884125760991
0.0787641540532764
0.07464701894430899
-0.03107020443283519
-0.003645003236793878
-0.001544927830635763
-0.03259557904962714
0.1706098255608657
-0.1775155909164486
-0.06009586600276576
0.01940378085472797
-0.147198073048492
-0.0528267333635424
0.1536771253823575
0.2770426419415919
-0.04042915891730001
0.008769157339901631
-0.255176303031339
-0.1319604348530027
0.2363507203654568
0.1784594758537666
0.1295724031582168
0.02190538535513107
0.08839916757666796
0.05234371426177564
0.4521803966571548
0.01593408936954657
0.09808094887777166
0.04289350496864551
0.07238410939361559
-0.1152776132635977
-0.242949651292315
-0.2003648667363755
-0.01961744031481418
-0.2018791546240522
0.2747937388451549
)
;

boundaryField
{
    FrontBack
    {
        type            empty;
    }
    Top
    {
        type            calculated;
        value           uniform 0;
    }
    In
    {
        type            calculated;
        value           uniform -1;
    }
    Bottom
    {
        type            calculated;
        value           uniform 0;
    }
    Out
    {
        type            calculated;
        value           nonuniform List<scalar> 10(1.035268155047185 1.064226723568663 1.02284171372303 1.021574285161579 0.9957061800857705 1.013581060131125 1.03458837231871 1.062939482407657 0.8672271404455238 0.8820473832748772);
    }
    circle
    {
        type            calculated;
        value           uniform 0;
    }
}


// ************************************************************************* //
